
     Program PWSCF v.6.3MaX starts on 23Oct2018 at 13:13:24 

     This program is part of the open-source Quantum ESPRESSO suite
     for quantum simulation of materials; please cite
         "P. Giannozzi et al., J. Phys.:Condens. Matter 21 395502 (2009);
         "P. Giannozzi et al., J. Phys.:Condens. Matter 29 465901 (2017);
          URL http://www.quantum-espresso.org", 
     in publications or presentations arising from this work. More details at
     http://www.quantum-espresso.org/quote

     Parallel version (MPI), running on     8 processors

     MPI processes distributed on     1 nodes
     R & G space division:  proc/nbgrp/npool/nimage =       8
     Waiting for input...
     Reading input from standard input
Warning: card &CELL ignored
Warning: card                CELL_DYNAMICS = 'BFGS' , ignored
Warning: card / ignored

     Current dimensions of program PWSCF are:
     Max number of different atomic species (ntypx) = 10
     Max number of k-points (npk) =  40000
     Max angular momentum in pseudopotentials (lmaxx) =  3
               file N.pbe-n-kjpaw_psl.1.0.0.UPF: wavefunction(s)  2S renormalized
               file Na.pbe-spnl-kjpaw_psl.1.0.0.UPF: wavefunction(s)  2P renormalized

     Subspace diagonalization in iterative solution of the eigenvalue problem:
     a serial algorithm will be used


     Parallelization info
     --------------------
     sticks:   dense  smooth     PW     G-vecs:    dense   smooth      PW
     Min         178     178     54                 4509     4509     744
     Max         179     179     55                 4512     4512     747
     Sum        1429    1429    433                36085    36085    5961



     bravais-lattice index     =            2
     lattice parameter (alat)  =      14.6200  a.u.
     unit-cell volume          =     781.2358 (a.u.)^3
     number of atoms/cell      =            3
     number of atomic types    =            3
     number of electrons       =         9.00
     number of Kohn-Sham states=            9
     kinetic-energy cutoff     =      49.0000  Ry
     charge density cutoff     =     196.0000  Ry
     convergence threshold     =      1.0E-09
     mixing beta               =       0.4000
     number of iterations used =            8  plain     mixing
     Exchange-correlation      = SLA PW PBX PBC ( 1  4  3  4 0 0)

     celldm(1)=  14.620000  celldm(2)=   0.000000  celldm(3)=   0.000000
     celldm(4)=   0.000000  celldm(5)=   0.000000  celldm(6)=   0.000000

     crystal axes: (cart. coord. in units of alat)
               a(1) = (  -0.500000   0.000000   0.500000 )  
               a(2) = (   0.000000   0.500000   0.500000 )  
               a(3) = (  -0.500000   0.500000   0.000000 )  

     reciprocal axes: (cart. coord. in units 2 pi/alat)
               b(1) = ( -1.000000 -1.000000  1.000000 )  
               b(2) = (  1.000000  1.000000  1.000000 )  
               b(3) = ( -1.000000  1.000000 -1.000000 )  


     PseudoPot. # 1 for N  read from file:
     ./../ps/N.pbe-n-kjpaw_psl.1.0.0.UPF
     MD5 check sum: 200139db3989ad6e773ddd42f12fc3a8
     Pseudo is Projector augmented-wave + core cor, Zval =  5.0
     Generated using "atomic" code by A. Dal Corso v.6.3
     Shape of augmentation charge: PSQ
     Using radial grid of 1085 points,  4 beta functions with: 
                l(1) =   0
                l(2) =   0
                l(3) =   1
                l(4) =   1
     Q(r) pseudized with 0 coefficients 


     PseudoPot. # 2 for Na read from file:
     ./../ps/Na.pbe-spnl-kjpaw_psl.1.0.0.UPF
     MD5 check sum: 09e782c158f17eb2240230c4112357ee
     Pseudo is Projector augmented-wave + core cor, Zval =  9.0
     Generated using "atomic" code by A. Dal Corso v.6.3
     Shape of augmentation charge: PSQ
     Using radial grid of 1121 points,  4 beta functions with: 
                l(1) =   0
                l(2) =   0
                l(3) =   1
                l(4) =   1
     Q(r) pseudized with 0 coefficients 


     PseudoPot. # 3 for Cs read from file:
     ./../ps/Cs.pbe-spnl-kjpaw_psl.1.0.0.UPF
     MD5 check sum: f98336d4a4407e24c1ab1e3bc36275e8
     Pseudo is Projector augmented-wave + core cor, Zval = -5.0
     Generated using "atomic" code by A. Dal Corso v.6.2.2
     Shape of augmentation charge: PSQ
     Using radial grid of 1251 points,  6 beta functions with: 
                l(1) =   0
                l(2) =   0
                l(3) =   1
                l(4) =   1
                l(5) =   2
                l(6) =   2
     Q(r) pseudized with 0 coefficients 


     atomic species   valence    mass     pseudopotential
        N              5.00    14.00670     N ( 1.00)
        Na             9.00    22.98977     Na( 1.00)
        Cs            -5.00   132.90545     Cs( 1.00)

     24 Sym. Ops. (no inversion) found



   Cartesian axes

     site n.     atom                  positions (alat units)
         1           N   tau(   1) = (   0.0000000   0.0000000   0.0000000  )
         2           Na  tau(   2) = (  -0.2500000   0.2500000   0.2500000  )
         3           Cs  tau(   3) = (  -0.7500000   0.7500000   0.7500000  )

     number of k points=   110  Methfessel-Paxton smearing, width (Ry)=  0.0200

     Number of k-points >= 100: set verbosity='high' to print them.

     Dense  grid:    36085 G-vectors     FFT dimensions: (  48,  48,  48)

     Estimated max dynamical RAM per process >      33.68 MB

     Estimated total dynamical RAM >     269.43 MB

     Check: negative/imaginary core charge=   -0.000012    0.000000

     Initial potential from superposition of free atoms

     starting charge   22.95298, renormalised to    9.00000
     Starting wfcs are   14 randomized atomic wfcs
     Checking if some PAW data can be deallocated... 

     total cpu time spent up to now is        3.5 secs

     Self-consistent Calculation

     iteration #  1     ecut=    49.00 Ry     beta= 0.40
     Davidson diagonalization with overlap
     ethr =  1.00E-02,  avg # of iterations = 12.3

     total cpu time spent up to now is        9.2 secs

     total energy              =    -717.77319122 Ry
     Harris-Foulkes estimate   =    -745.24846161 Ry
     estimated scf accuracy    <      47.52682248 Ry

     iteration #  2     ecut=    49.00 Ry     beta= 0.40
     Davidson diagonalization with overlap
     ethr =  1.00E-02,  avg # of iterations =  3.0

     total cpu time spent up to now is       12.1 secs

     total energy              =    -709.60513003 Ry
     Harris-Foulkes estimate   =    -719.52058711 Ry
     estimated scf accuracy    <      11.33453168 Ry

     iteration #  3     ecut=    49.00 Ry     beta= 0.40
     Davidson diagonalization with overlap
     ethr =  1.00E-02,  avg # of iterations = 10.0

     negative rho (up, down):  8.960E-02 0.000E+00

     total cpu time spent up to now is       17.6 secs

     total energy              =    -712.51230632 Ry
     Harris-Foulkes estimate   =    -713.23783370 Ry
     estimated scf accuracy    <       1.23172260 Ry

     iteration #  4     ecut=    49.00 Ry     beta= 0.40
     Davidson diagonalization with overlap
     ethr =  1.00E-02,  avg # of iterations =  3.1

     negative rho (up, down):  1.748E-01 0.000E+00

     total cpu time spent up to now is       20.2 secs

     total energy              =    -712.71437473 Ry
     Harris-Foulkes estimate   =    -712.91585583 Ry
     estimated scf accuracy    <       0.29703562 Ry

     iteration #  5     ecut=    49.00 Ry     beta= 0.40
     Davidson diagonalization with overlap
     ethr =  3.30E-03,  avg # of iterations =  5.6

     negative rho (up, down):  2.281E-01 0.000E+00

     total cpu time spent up to now is       23.4 secs

     total energy              =    -712.74363226 Ry
     Harris-Foulkes estimate   =    -712.84513660 Ry
     estimated scf accuracy    <       0.16685580 Ry

     iteration #  6     ecut=    49.00 Ry     beta= 0.40
     Davidson diagonalization with overlap
     ethr =  1.85E-03,  avg # of iterations =  2.2

     negative rho (up, down):  2.269E-01 0.000E+00

     total cpu time spent up to now is       25.7 secs

     total energy              =    -712.77570959 Ry
     Harris-Foulkes estimate   =    -712.77571735 Ry
     estimated scf accuracy    <       0.00003304 Ry

     iteration #  7     ecut=    49.00 Ry     beta= 0.40
     Davidson diagonalization with overlap
     ethr =  3.67E-07,  avg # of iterations = 13.0

     negative rho (up, down):  2.251E-01 0.000E+00

     total cpu time spent up to now is       32.2 secs

     total energy              =    -712.77708251 Ry
     Harris-Foulkes estimate   =    -712.77712232 Ry
     estimated scf accuracy    <       0.00004405 Ry

     iteration #  8     ecut=    49.00 Ry     beta= 0.40
     Davidson diagonalization with overlap
     ethr =  3.67E-07,  avg # of iterations =  2.0

     negative rho (up, down):  2.265E-01 0.000E+00

     total cpu time spent up to now is       34.5 secs

     total energy              =    -712.77709537 Ry
     Harris-Foulkes estimate   =    -712.77709830 Ry
     estimated scf accuracy    <       0.00000787 Ry

     iteration #  9     ecut=    49.00 Ry     beta= 0.40
     Davidson diagonalization with overlap
     ethr =  8.75E-08,  avg # of iterations =  1.0

     negative rho (up, down):  2.263E-01 0.000E+00

     total cpu time spent up to now is       36.5 secs

     total energy              =    -712.77709401 Ry
     Harris-Foulkes estimate   =    -712.77709599 Ry
     estimated scf accuracy    <       0.00000197 Ry

     iteration # 10     ecut=    49.00 Ry     beta= 0.40
     Davidson diagonalization with overlap
     ethr =  2.19E-08,  avg # of iterations =  2.0

     negative rho (up, down):  2.262E-01 0.000E+00

     total cpu time spent up to now is       38.8 secs

     total energy              =    -712.77709394 Ry
     Harris-Foulkes estimate   =    -712.77709419 Ry
     estimated scf accuracy    <       0.00000038 Ry

     iteration # 11     ecut=    49.00 Ry     beta= 0.40
     Davidson diagonalization with overlap
     ethr =  4.19E-09,  avg # of iterations =  1.3

     negative rho (up, down):  2.262E-01 0.000E+00

     total cpu time spent up to now is       40.9 secs

     total energy              =    -712.77709385 Ry
     Harris-Foulkes estimate   =    -712.77709397 Ry
     estimated scf accuracy    <       0.00000014 Ry

     iteration # 12     ecut=    49.00 Ry     beta= 0.40
     Davidson diagonalization with overlap
     ethr =  1.53E-09,  avg # of iterations =  2.1

     negative rho (up, down):  2.262E-01 0.000E+00

     total cpu time spent up to now is       43.3 secs

     total energy              =    -712.77709389 Ry
     Harris-Foulkes estimate   =    -712.77709388 Ry
     estimated scf accuracy    <          7.1E-09 Ry

     iteration # 13     ecut=    49.00 Ry     beta= 0.40
     Davidson diagonalization with overlap
     ethr =  7.93E-11,  avg # of iterations =  3.5

     negative rho (up, down):  2.262E-01 0.000E+00

     total cpu time spent up to now is       46.4 secs

     total energy              =    -712.77709389 Ry
     Harris-Foulkes estimate   =    -712.77709390 Ry
     estimated scf accuracy    <          1.0E-09 Ry

     iteration # 14     ecut=    49.00 Ry     beta= 0.40
     Davidson diagonalization with overlap
     ethr =  1.12E-11,  avg # of iterations =  3.0

     negative rho (up, down):  2.262E-01 0.000E+00

     total cpu time spent up to now is       48.9 secs

     End of self-consistent calculation

     Number of k-points >= 100: set verbosity='high' to print the bands.

     the Fermi energy is  -323.8445 ev

!    total energy              =    -712.77709390 Ry
     Harris-Foulkes estimate   =    -712.77709389 Ry
     estimated scf accuracy    <          2.5E-10 Ry

     total all-electron energy =    -16167.862870 Ry

     The total energy is the sum of the following terms:

     one-electron contribution =    -316.85955639 Ry
     hartree contribution      =      54.82419770 Ry
     xc contribution           =     -28.95856709 Ry
     ewald contribution        =     -36.56760686 Ry
     one-center paw contrib.   =    -385.20690809 Ry
     smearing contrib. (-TS)   =      -0.00865317 Ry

     convergence has been achieved in  14 iterations

     negative rho (up, down):  2.262E-01 0.000E+00

     Forces acting on atoms (cartesian axes, Ry/au):

     atom    1 type  1   force =     0.00000000    0.00000000    0.00000000
     atom    2 type  2   force =     0.00000000    0.00000000    0.00000000
     atom    3 type  3   force =     0.00000000   -0.00000000    0.00000000

     Total force =     0.000000     Total SCF correction =     0.000000


     Computing stress (Cartesian axis) and pressure


     negative rho (up, down):  2.262E-01 0.000E+00
          total   stress  (Ry/bohr**3)                   (kbar)     P=********
  -0.14358921  -0.00000000   0.00000000     -21122.70     -0.00      0.00
  -0.00000000  -0.14358921   0.00000000         -0.00 -21122.70      0.00
  -0.00000000   0.00000000  -0.14358921         -0.00      0.00 -21122.70


     Writing output data file NNaCs.save/

     init_run     :      1.49s CPU      1.68s WALL (       1 calls)
     electrons    :     42.64s CPU     45.44s WALL (       1 calls)
     forces       :      0.39s CPU      0.42s WALL (       1 calls)
     stress       :      1.03s CPU      1.05s WALL (       1 calls)

     Called by init_run:
     wfcinit      :      1.07s CPU      1.11s WALL (       1 calls)
     potinit      :      0.08s CPU      0.17s WALL (       1 calls)
     hinit0       :      0.28s CPU      0.33s WALL (       1 calls)

     Called by electrons:
     c_bands      :     36.54s CPU     38.09s WALL (      14 calls)
     sum_band     :      4.57s CPU      4.91s WALL (      14 calls)
     v_of_rho     :      0.16s CPU      0.18s WALL (      15 calls)
     newd         :      0.64s CPU      0.65s WALL (      15 calls)
     PAW_pot      :      0.74s CPU      1.68s WALL (      15 calls)
     mix_rho      :      0.06s CPU      0.06s WALL (      14 calls)

     Called by c_bands:
     init_us_2    :      1.49s CPU      1.58s WALL (    3410 calls)
     cegterg      :     34.45s CPU     35.92s WALL (    1540 calls)

     Called by sum_band:
     sum_band:bec :      0.03s CPU      0.04s WALL (    1540 calls)
     addusdens    :      0.57s CPU      0.58s WALL (      14 calls)

     Called by *egterg:
     h_psi        :     24.25s CPU     25.28s WALL (    8690 calls)
     s_psi        :      2.19s CPU      2.29s WALL (    8690 calls)
     g_psi        :      0.11s CPU      0.11s WALL (    7040 calls)
     cdiaghg      :      1.78s CPU      1.85s WALL (    8580 calls)

     Called by h_psi:
     h_psi:pot    :     23.89s CPU     24.90s WALL (    8690 calls)
     h_psi:calbec :      3.25s CPU      3.42s WALL (    8690 calls)
     vloc_psi     :     18.20s CPU     18.92s WALL (    8690 calls)
     add_vuspsi   :      2.41s CPU      2.52s WALL (    8690 calls)

     General routines
     calbec       :      4.19s CPU      4.44s WALL (   10780 calls)
     fft          :      0.06s CPU      0.07s WALL (     191 calls)
     ffts         :      0.00s CPU      0.00s WALL (      14 calls)
     fftw         :     16.48s CPU     17.21s WALL (  109192 calls)

     Parallel routines
     fft_scatt_xy :      2.73s CPU      2.85s WALL (  109397 calls)
     fft_scatt_yz :      4.52s CPU      4.76s WALL (  109397 calls)

     PWSCF        :    47.31s CPU        50.53s WALL


   This run was terminated on:  13:14:14  23Oct2018            

=------------------------------------------------------------------------------=
   JOB DONE.
=------------------------------------------------------------------------------=
