
     Program PWSCF v.6.3MaX starts on 23Oct2018 at 14: 3:14 

     This program is part of the open-source Quantum ESPRESSO suite
     for quantum simulation of materials; please cite
         "P. Giannozzi et al., J. Phys.:Condens. Matter 21 395502 (2009);
         "P. Giannozzi et al., J. Phys.:Condens. Matter 29 465901 (2017);
          URL http://www.quantum-espresso.org", 
     in publications or presentations arising from this work. More details at
     http://www.quantum-espresso.org/quote

     Parallel version (MPI), running on     8 processors

     MPI processes distributed on     1 nodes
     R & G space division:  proc/nbgrp/npool/nimage =       8
     Waiting for input...
     Reading input from standard input
Warning: card &CELL ignored
Warning: card                CELL_DYNAMICS = 'BFGS' , ignored
Warning: card / ignored

     Current dimensions of program PWSCF are:
     Max number of different atomic species (ntypx) = 10
     Max number of k-points (npk) =  40000
     Max angular momentum in pseudopotentials (lmaxx) =  3
               file N.pbe-n-kjpaw_psl.1.0.0.UPF: wavefunction(s)  2S renormalized
               file Na.pbe-spnl-kjpaw_psl.1.0.0.UPF: wavefunction(s)  2P renormalized

     Subspace diagonalization in iterative solution of the eigenvalue problem:
     a serial algorithm will be used


     Parallelization info
     --------------------
     sticks:   dense  smooth     PW     G-vecs:    dense   smooth      PW
     Min         358     358    101                12648    12648    1898
     Max         359     359    103                12649    12649    1899
     Sum        2869    2869    817               101189   101189   15185



     bravais-lattice index     =            2
     lattice parameter (alat)  =      14.6200  a.u.
     unit-cell volume          =     781.2358 (a.u.)^3
     number of atoms/cell      =            3
     number of atomic types    =            3
     number of electrons       =         9.00
     number of Kohn-Sham states=            9
     kinetic-energy cutoff     =      97.0000  Ry
     charge density cutoff     =     388.0000  Ry
     convergence threshold     =      1.0E-09
     mixing beta               =       0.4000
     number of iterations used =            8  plain     mixing
     Exchange-correlation      = SLA PW PBX PBC ( 1  4  3  4 0 0)

     celldm(1)=  14.620000  celldm(2)=   0.000000  celldm(3)=   0.000000
     celldm(4)=   0.000000  celldm(5)=   0.000000  celldm(6)=   0.000000

     crystal axes: (cart. coord. in units of alat)
               a(1) = (  -0.500000   0.000000   0.500000 )  
               a(2) = (   0.000000   0.500000   0.500000 )  
               a(3) = (  -0.500000   0.500000   0.000000 )  

     reciprocal axes: (cart. coord. in units 2 pi/alat)
               b(1) = ( -1.000000 -1.000000  1.000000 )  
               b(2) = (  1.000000  1.000000  1.000000 )  
               b(3) = ( -1.000000  1.000000 -1.000000 )  


     PseudoPot. # 1 for N  read from file:
     ./../ps/N.pbe-n-kjpaw_psl.1.0.0.UPF
     MD5 check sum: 200139db3989ad6e773ddd42f12fc3a8
     Pseudo is Projector augmented-wave + core cor, Zval =  5.0
     Generated using "atomic" code by A. Dal Corso v.6.3
     Shape of augmentation charge: PSQ
     Using radial grid of 1085 points,  4 beta functions with: 
                l(1) =   0
                l(2) =   0
                l(3) =   1
                l(4) =   1
     Q(r) pseudized with 0 coefficients 


     PseudoPot. # 2 for Na read from file:
     ./../ps/Na.pbe-spnl-kjpaw_psl.1.0.0.UPF
     MD5 check sum: 09e782c158f17eb2240230c4112357ee
     Pseudo is Projector augmented-wave + core cor, Zval =  9.0
     Generated using "atomic" code by A. Dal Corso v.6.3
     Shape of augmentation charge: PSQ
     Using radial grid of 1121 points,  4 beta functions with: 
                l(1) =   0
                l(2) =   0
                l(3) =   1
                l(4) =   1
     Q(r) pseudized with 0 coefficients 


     PseudoPot. # 3 for Cs read from file:
     ./../ps/Cs.pbe-spnl-kjpaw_psl.1.0.0.UPF
     MD5 check sum: f98336d4a4407e24c1ab1e3bc36275e8
     Pseudo is Projector augmented-wave + core cor, Zval = -5.0
     Generated using "atomic" code by A. Dal Corso v.6.2.2
     Shape of augmentation charge: PSQ
     Using radial grid of 1251 points,  6 beta functions with: 
                l(1) =   0
                l(2) =   0
                l(3) =   1
                l(4) =   1
                l(5) =   2
                l(6) =   2
     Q(r) pseudized with 0 coefficients 


     atomic species   valence    mass     pseudopotential
        N              5.00    14.00670     N ( 1.00)
        Na             9.00    22.98977     Na( 1.00)
        Cs            -5.00   132.90545     Cs( 1.00)

     24 Sym. Ops. (no inversion) found



   Cartesian axes

     site n.     atom                  positions (alat units)
         1           N   tau(   1) = (   0.0000000   0.0000000   0.0000000  )
         2           Na  tau(   2) = (  -0.2500000   0.2500000   0.2500000  )
         3           Cs  tau(   3) = (  -0.7500000   0.7500000   0.7500000  )

     number of k points=   110  Methfessel-Paxton smearing, width (Ry)=  0.0200

     Number of k-points >= 100: set verbosity='high' to print them.

     Dense  grid:   101189 G-vectors     FFT dimensions: (  72,  72,  72)

     Estimated max dynamical RAM per process >      83.88 MB

     Estimated total dynamical RAM >     671.01 MB

     Check: negative/imaginary core charge=   -0.000001    0.000000

     Initial potential from superposition of free atoms

     starting charge   22.95298, renormalised to    9.00000
     Starting wfcs are   14 randomized atomic wfcs
     Checking if some PAW data can be deallocated... 

     total cpu time spent up to now is       11.3 secs

     Self-consistent Calculation

     iteration #  1     ecut=    97.00 Ry     beta= 0.40
     Davidson diagonalization with overlap
     ethr =  1.00E-02,  avg # of iterations = 12.4

     total cpu time spent up to now is       51.8 secs

     total energy              =    -717.43524425 Ry
     Harris-Foulkes estimate   =    -745.47419862 Ry
     estimated scf accuracy    <      48.71335063 Ry

     iteration #  2     ecut=    97.00 Ry     beta= 0.40
     Davidson diagonalization with overlap
     ethr =  1.00E-02,  avg # of iterations =  3.0

     total cpu time spent up to now is       74.1 secs

     total energy              =    -709.75290070 Ry
     Harris-Foulkes estimate   =    -719.38860409 Ry
     estimated scf accuracy    <      11.17421524 Ry

     iteration #  3     ecut=    97.00 Ry     beta= 0.40
     Davidson diagonalization with overlap
     ethr =  1.00E-02,  avg # of iterations =  9.7

     negative rho (up, down):  9.388E-02 0.000E+00

     total cpu time spent up to now is      112.7 secs

     total energy              =    -712.59893309 Ry
     Harris-Foulkes estimate   =    -713.18615282 Ry
     estimated scf accuracy    <       1.08379910 Ry

     iteration #  4     ecut=    97.00 Ry     beta= 0.40
     Davidson diagonalization with overlap
     ethr =  1.00E-02,  avg # of iterations =  3.3

     negative rho (up, down):  1.862E-01 0.000E+00

     total cpu time spent up to now is      133.0 secs

     total energy              =    -712.73451808 Ry
     Harris-Foulkes estimate   =    -712.92382581 Ry
     estimated scf accuracy    <       0.27866437 Ry

     iteration #  5     ecut=    97.00 Ry     beta= 0.40
     Davidson diagonalization with overlap
     ethr =  3.10E-03,  avg # of iterations =  6.1

     negative rho (up, down):  2.255E-01 0.000E+00

     total cpu time spent up to now is      158.4 secs

     total energy              =    -712.77873452 Ry
     Harris-Foulkes estimate   =    -712.82440404 Ry
     estimated scf accuracy    <       0.08152437 Ry

     iteration #  6     ecut=    97.00 Ry     beta= 0.40
     Davidson diagonalization with overlap
     ethr =  9.06E-04,  avg # of iterations =  2.5

     negative rho (up, down):  2.240E-01 0.000E+00

     total cpu time spent up to now is      177.5 secs

     total energy              =    -712.79482170 Ry
     Harris-Foulkes estimate   =    -712.79483396 Ry
     estimated scf accuracy    <       0.00004197 Ry

     iteration #  7     ecut=    97.00 Ry     beta= 0.40
     Davidson diagonalization with overlap
     ethr =  4.66E-07,  avg # of iterations = 12.9

     negative rho (up, down):  2.237E-01 0.000E+00

     total cpu time spent up to now is      223.0 secs

     total energy              =    -712.79603805 Ry
     Harris-Foulkes estimate   =    -712.79603838 Ry
     estimated scf accuracy    <       0.00001361 Ry

     iteration #  8     ecut=    97.00 Ry     beta= 0.40
     Davidson diagonalization with overlap
     ethr =  1.51E-07,  avg # of iterations =  5.0

     negative rho (up, down):  2.245E-01 0.000E+00

     total cpu time spent up to now is      245.7 secs

     total energy              =    -712.79604660 Ry
     Harris-Foulkes estimate   =    -712.79605019 Ry
     estimated scf accuracy    <       0.00000786 Ry

     iteration #  9     ecut=    97.00 Ry     beta= 0.40
     Davidson diagonalization with overlap
     ethr =  8.74E-08,  avg # of iterations =  2.0

     negative rho (up, down):  2.245E-01 0.000E+00

     total cpu time spent up to now is      264.0 secs

     total energy              =    -712.79604638 Ry
     Harris-Foulkes estimate   =    -712.79604883 Ry
     estimated scf accuracy    <       0.00000156 Ry

     iteration # 10     ecut=    97.00 Ry     beta= 0.40
     Davidson diagonalization with overlap
     ethr =  1.73E-08,  avg # of iterations =  2.0

     negative rho (up, down):  2.244E-01 0.000E+00

     total cpu time spent up to now is      282.1 secs

     total energy              =    -712.79604590 Ry
     Harris-Foulkes estimate   =    -712.79604658 Ry
     estimated scf accuracy    <       0.00000035 Ry

     iteration # 11     ecut=    97.00 Ry     beta= 0.40
     Davidson diagonalization with overlap
     ethr =  3.91E-09,  avg # of iterations =  2.8

     negative rho (up, down):  2.244E-01 0.000E+00

     total cpu time spent up to now is      301.4 secs

     total energy              =    -712.79604599 Ry
     Harris-Foulkes estimate   =    -712.79604603 Ry
     estimated scf accuracy    <       0.00000002 Ry

     iteration # 12     ecut=    97.00 Ry     beta= 0.40
     Davidson diagonalization with overlap
     ethr =  2.44E-10,  avg # of iterations =  3.1

     negative rho (up, down):  2.244E-01 0.000E+00

     total cpu time spent up to now is      323.8 secs

     total energy              =    -712.79604600 Ry
     Harris-Foulkes estimate   =    -712.79604602 Ry
     estimated scf accuracy    <          2.0E-09 Ry

     iteration # 13     ecut=    97.00 Ry     beta= 0.40
     Davidson diagonalization with overlap
     ethr =  2.27E-11,  avg # of iterations =  3.0

     negative rho (up, down):  2.244E-01 0.000E+00

     total cpu time spent up to now is      344.2 secs

     End of self-consistent calculation

     Number of k-points >= 100: set verbosity='high' to print the bands.

     the Fermi energy is  -324.0229 ev

!    total energy              =    -712.79604600 Ry
     Harris-Foulkes estimate   =    -712.79604600 Ry
     estimated scf accuracy    <          1.1E-11 Ry

     total all-electron energy =    -16167.881822 Ry

     The total energy is the sum of the following terms:

     one-electron contribution =    -316.87534922 Ry
     hartree contribution      =      54.82460540 Ry
     xc contribution           =     -28.95949604 Ry
     ewald contribution        =     -36.56760676 Ry
     one-center paw contrib.   =    -385.20954831 Ry
     smearing contrib. (-TS)   =      -0.00865107 Ry

     convergence has been achieved in  13 iterations

     negative rho (up, down):  2.244E-01 0.000E+00

     Forces acting on atoms (cartesian axes, Ry/au):

     atom    1 type  1   force =     0.00000000    0.00000000    0.00000000
     atom    2 type  2   force =     0.00000000    0.00000000    0.00000000
     atom    3 type  3   force =     0.00000000    0.00000000    0.00000000

     Total force =     0.000000     Total SCF correction =     0.000000


     Computing stress (Cartesian axis) and pressure


     negative rho (up, down):  2.244E-01 0.000E+00
          total   stress  (Ry/bohr**3)                   (kbar)     P=********
  -0.14341574   0.00000000  -0.00000000     -21097.18      0.00     -0.00
   0.00000000  -0.14341574   0.00000000          0.00 -21097.18      0.00
  -0.00000000   0.00000000  -0.14341574         -0.00      0.00 -21097.18


     Writing output data file NNaCs.save/

     init_run     :      9.15s CPU      9.66s WALL (       1 calls)
     electrons    :    319.54s CPU    332.93s WALL (       1 calls)
     forces       :      1.45s CPU      1.52s WALL (       1 calls)
     stress       :      3.58s CPU      3.67s WALL (       1 calls)

     Called by init_run:
     wfcinit      :      8.32s CPU      8.59s WALL (       1 calls)
     potinit      :      0.18s CPU      0.24s WALL (       1 calls)
     hinit0       :      0.41s CPU      0.56s WALL (       1 calls)

     Called by electrons:
     c_bands      :    271.22s CPU    282.34s WALL (      13 calls)
     sum_band     :     44.94s CPU     46.20s WALL (      13 calls)
     v_of_rho     :      0.95s CPU      1.02s WALL (      14 calls)
     newd         :      1.68s CPU      1.89s WALL (      14 calls)
     PAW_pot      :      0.71s CPU      1.48s WALL (      14 calls)
     mix_rho      :      0.21s CPU      0.22s WALL (      13 calls)

     Called by c_bands:
     init_us_2    :      3.61s CPU      3.71s WALL (    3190 calls)
     cegterg      :    265.96s CPU    276.86s WALL (    1430 calls)

     Called by sum_band:
     sum_band:bec :      0.04s CPU      0.04s WALL (    1430 calls)
     addusdens    :      1.31s CPU      1.57s WALL (      13 calls)

     Called by *egterg:
     h_psi        :    246.36s CPU    256.57s WALL (    9005 calls)
     s_psi        :      6.15s CPU      6.41s WALL (    9005 calls)
     g_psi        :      0.28s CPU      0.28s WALL (    7465 calls)
     cdiaghg      :      1.80s CPU      1.88s WALL (    8895 calls)

     Called by h_psi:
     h_psi:pot    :    244.98s CPU    255.14s WALL (    9005 calls)
     h_psi:calbec :      9.87s CPU     10.43s WALL (    9005 calls)
     vloc_psi     :    227.34s CPU    236.53s WALL (    9005 calls)
     add_vuspsi   :      7.68s CPU      8.11s WALL (    9005 calls)

     General routines
     calbec       :     12.61s CPU     13.30s WALL (   10985 calls)
     fft          :      0.70s CPU      0.77s WALL (     180 calls)
     ffts         :      0.06s CPU      0.06s WALL (      13 calls)
     fftw         :    195.21s CPU    202.40s WALL (  107034 calls)

     Parallel routines
     fft_scatt_xy :     41.56s CPU     43.04s WALL (  107227 calls)
     fft_scatt_yz :     25.51s CPU     27.01s WALL (  107227 calls)

     PWSCF        :  5m35.43s CPU     5m49.73s WALL


   This run was terminated on:  14: 9: 3  23Oct2018            

=------------------------------------------------------------------------------=
   JOB DONE.
=------------------------------------------------------------------------------=
