
     Program PWSCF v.6.3MaX starts on 23Oct2018 at 13:14:14 

     This program is part of the open-source Quantum ESPRESSO suite
     for quantum simulation of materials; please cite
         "P. Giannozzi et al., J. Phys.:Condens. Matter 21 395502 (2009);
         "P. Giannozzi et al., J. Phys.:Condens. Matter 29 465901 (2017);
          URL http://www.quantum-espresso.org", 
     in publications or presentations arising from this work. More details at
     http://www.quantum-espresso.org/quote

     Parallel version (MPI), running on     8 processors

     MPI processes distributed on     1 nodes
     R & G space division:  proc/nbgrp/npool/nimage =       8
     Waiting for input...
     Reading input from standard input
Warning: card &CELL ignored
Warning: card                CELL_DYNAMICS = 'BFGS' , ignored
Warning: card / ignored

     Current dimensions of program PWSCF are:
     Max number of different atomic species (ntypx) = 10
     Max number of k-points (npk) =  40000
     Max angular momentum in pseudopotentials (lmaxx) =  3
               file N.pbe-n-kjpaw_psl.1.0.0.UPF: wavefunction(s)  2S renormalized
               file Na.pbe-spnl-kjpaw_psl.1.0.0.UPF: wavefunction(s)  2P renormalized

     Subspace diagonalization in iterative solution of the eigenvalue problem:
     a serial algorithm will be used


     Parallelization info
     --------------------
     sticks:   dense  smooth     PW     G-vecs:    dense   smooth      PW
     Min         188     188     54                 4813     4813     771
     Max         189     189     55                 4816     4816     775
     Sum        1507    1507    439                38517    38517    6183



     bravais-lattice index     =            2
     lattice parameter (alat)  =      14.6200  a.u.
     unit-cell volume          =     781.2358 (a.u.)^3
     number of atoms/cell      =            3
     number of atomic types    =            3
     number of electrons       =         9.00
     number of Kohn-Sham states=            9
     kinetic-energy cutoff     =      51.0000  Ry
     charge density cutoff     =     204.0000  Ry
     convergence threshold     =      1.0E-09
     mixing beta               =       0.4000
     number of iterations used =            8  plain     mixing
     Exchange-correlation      = SLA PW PBX PBC ( 1  4  3  4 0 0)

     celldm(1)=  14.620000  celldm(2)=   0.000000  celldm(3)=   0.000000
     celldm(4)=   0.000000  celldm(5)=   0.000000  celldm(6)=   0.000000

     crystal axes: (cart. coord. in units of alat)
               a(1) = (  -0.500000   0.000000   0.500000 )  
               a(2) = (   0.000000   0.500000   0.500000 )  
               a(3) = (  -0.500000   0.500000   0.000000 )  

     reciprocal axes: (cart. coord. in units 2 pi/alat)
               b(1) = ( -1.000000 -1.000000  1.000000 )  
               b(2) = (  1.000000  1.000000  1.000000 )  
               b(3) = ( -1.000000  1.000000 -1.000000 )  


     PseudoPot. # 1 for N  read from file:
     ./../ps/N.pbe-n-kjpaw_psl.1.0.0.UPF
     MD5 check sum: 200139db3989ad6e773ddd42f12fc3a8
     Pseudo is Projector augmented-wave + core cor, Zval =  5.0
     Generated using "atomic" code by A. Dal Corso v.6.3
     Shape of augmentation charge: PSQ
     Using radial grid of 1085 points,  4 beta functions with: 
                l(1) =   0
                l(2) =   0
                l(3) =   1
                l(4) =   1
     Q(r) pseudized with 0 coefficients 


     PseudoPot. # 2 for Na read from file:
     ./../ps/Na.pbe-spnl-kjpaw_psl.1.0.0.UPF
     MD5 check sum: 09e782c158f17eb2240230c4112357ee
     Pseudo is Projector augmented-wave + core cor, Zval =  9.0
     Generated using "atomic" code by A. Dal Corso v.6.3
     Shape of augmentation charge: PSQ
     Using radial grid of 1121 points,  4 beta functions with: 
                l(1) =   0
                l(2) =   0
                l(3) =   1
                l(4) =   1
     Q(r) pseudized with 0 coefficients 


     PseudoPot. # 3 for Cs read from file:
     ./../ps/Cs.pbe-spnl-kjpaw_psl.1.0.0.UPF
     MD5 check sum: f98336d4a4407e24c1ab1e3bc36275e8
     Pseudo is Projector augmented-wave + core cor, Zval = -5.0
     Generated using "atomic" code by A. Dal Corso v.6.2.2
     Shape of augmentation charge: PSQ
     Using radial grid of 1251 points,  6 beta functions with: 
                l(1) =   0
                l(2) =   0
                l(3) =   1
                l(4) =   1
                l(5) =   2
                l(6) =   2
     Q(r) pseudized with 0 coefficients 


     atomic species   valence    mass     pseudopotential
        N              5.00    14.00670     N ( 1.00)
        Na             9.00    22.98977     Na( 1.00)
        Cs            -5.00   132.90545     Cs( 1.00)

     24 Sym. Ops. (no inversion) found



   Cartesian axes

     site n.     atom                  positions (alat units)
         1           N   tau(   1) = (   0.0000000   0.0000000   0.0000000  )
         2           Na  tau(   2) = (  -0.2500000   0.2500000   0.2500000  )
         3           Cs  tau(   3) = (  -0.7500000   0.7500000   0.7500000  )

     number of k points=   110  Methfessel-Paxton smearing, width (Ry)=  0.0200

     Number of k-points >= 100: set verbosity='high' to print them.

     Dense  grid:    38517 G-vectors     FFT dimensions: (  48,  48,  48)

     Estimated max dynamical RAM per process >      35.47 MB

     Estimated total dynamical RAM >     283.73 MB

     Check: negative/imaginary core charge=   -0.000011    0.000000

     Initial potential from superposition of free atoms

     starting charge   22.95298, renormalised to    9.00000
     Starting wfcs are   14 randomized atomic wfcs
     Checking if some PAW data can be deallocated... 

     total cpu time spent up to now is        3.4 secs

     Self-consistent Calculation

     iteration #  1     ecut=    51.00 Ry     beta= 0.40
     Davidson diagonalization with overlap
     ethr =  1.00E-02,  avg # of iterations = 12.3

     total cpu time spent up to now is        9.2 secs

     total energy              =    -717.69887765 Ry
     Harris-Foulkes estimate   =    -745.31020591 Ry
     estimated scf accuracy    <      47.81258041 Ry

     iteration #  2     ecut=    51.00 Ry     beta= 0.40
     Davidson diagonalization with overlap
     ethr =  1.00E-02,  avg # of iterations =  3.0

     total cpu time spent up to now is       12.3 secs

     total energy              =    -709.63053519 Ry
     Harris-Foulkes estimate   =    -719.49114609 Ry
     estimated scf accuracy    <      11.30451626 Ry

     iteration #  3     ecut=    51.00 Ry     beta= 0.40
     Davidson diagonalization with overlap
     ethr =  1.00E-02,  avg # of iterations =  9.9

     negative rho (up, down):  9.058E-02 0.000E+00

     total cpu time spent up to now is       18.0 secs

     total energy              =    -712.52691614 Ry
     Harris-Foulkes estimate   =    -713.22472384 Ry
     estimated scf accuracy    <       1.20224434 Ry

     iteration #  4     ecut=    51.00 Ry     beta= 0.40
     Davidson diagonalization with overlap
     ethr =  1.00E-02,  avg # of iterations =  3.0

     negative rho (up, down):  1.769E-01 0.000E+00

     total cpu time spent up to now is       20.7 secs

     total energy              =    -712.71468055 Ry
     Harris-Foulkes estimate   =    -712.91710461 Ry
     estimated scf accuracy    <       0.29619268 Ry

     iteration #  5     ecut=    51.00 Ry     beta= 0.40
     Davidson diagonalization with overlap
     ethr =  3.29E-03,  avg # of iterations =  5.5

     negative rho (up, down):  2.266E-01 0.000E+00

     total cpu time spent up to now is       24.0 secs

     total energy              =    -712.75007440 Ry
     Harris-Foulkes estimate   =    -712.83635018 Ry
     estimated scf accuracy    <       0.14392862 Ry

     iteration #  6     ecut=    51.00 Ry     beta= 0.40
     Davidson diagonalization with overlap
     ethr =  1.60E-03,  avg # of iterations =  2.2

     negative rho (up, down):  2.254E-01 0.000E+00

     total cpu time spent up to now is       26.4 secs

     total energy              =    -712.77756057 Ry
     Harris-Foulkes estimate   =    -712.77756942 Ry
     estimated scf accuracy    <       0.00003561 Ry

     iteration #  7     ecut=    51.00 Ry     beta= 0.40
     Davidson diagonalization with overlap
     ethr =  3.96E-07,  avg # of iterations = 12.9

     negative rho (up, down):  2.235E-01 0.000E+00

     total cpu time spent up to now is       33.1 secs

     total energy              =    -712.77883764 Ry
     Harris-Foulkes estimate   =    -712.77888181 Ry
     estimated scf accuracy    <       0.00003930 Ry

     iteration #  8     ecut=    51.00 Ry     beta= 0.40
     Davidson diagonalization with overlap
     ethr =  3.96E-07,  avg # of iterations =  2.7

     negative rho (up, down):  2.250E-01 0.000E+00

     total cpu time spent up to now is       35.7 secs

     total energy              =    -712.77885038 Ry
     Harris-Foulkes estimate   =    -712.77885643 Ry
     estimated scf accuracy    <       0.00001012 Ry

     iteration #  9     ecut=    51.00 Ry     beta= 0.40
     Davidson diagonalization with overlap
     ethr =  1.12E-07,  avg # of iterations =  2.0

     negative rho (up, down):  2.249E-01 0.000E+00

     total cpu time spent up to now is       38.0 secs

     total energy              =    -712.77884989 Ry
     Harris-Foulkes estimate   =    -712.77885191 Ry
     estimated scf accuracy    <       0.00000200 Ry

     iteration # 10     ecut=    51.00 Ry     beta= 0.40
     Davidson diagonalization with overlap
     ethr =  2.22E-08,  avg # of iterations =  1.1

     negative rho (up, down):  2.247E-01 0.000E+00

     total cpu time spent up to now is       40.1 secs

     total energy              =    -712.77884936 Ry
     Harris-Foulkes estimate   =    -712.77885007 Ry
     estimated scf accuracy    <       0.00000046 Ry

     iteration # 11     ecut=    51.00 Ry     beta= 0.40
     Davidson diagonalization with overlap
     ethr =  5.14E-09,  avg # of iterations =  2.7

     negative rho (up, down):  2.248E-01 0.000E+00

     total cpu time spent up to now is       42.6 secs

     total energy              =    -712.77884960 Ry
     Harris-Foulkes estimate   =    -712.77884961 Ry
     estimated scf accuracy    <          7.0E-09 Ry

     iteration # 12     ecut=    51.00 Ry     beta= 0.40
     Davidson diagonalization with overlap
     ethr =  7.79E-11,  avg # of iterations =  4.0

     negative rho (up, down):  2.248E-01 0.000E+00

     total cpu time spent up to now is       46.2 secs

     total energy              =    -712.77884962 Ry
     Harris-Foulkes estimate   =    -712.77884961 Ry
     estimated scf accuracy    <          9.5E-09 Ry

     iteration # 13     ecut=    51.00 Ry     beta= 0.40
     Davidson diagonalization with overlap
     ethr =  7.79E-11,  avg # of iterations =  1.0

     negative rho (up, down):  2.248E-01 0.000E+00

     total cpu time spent up to now is       48.2 secs

     total energy              =    -712.77884960 Ry
     Harris-Foulkes estimate   =    -712.77884962 Ry
     estimated scf accuracy    <       0.00000001 Ry

     iteration # 14     ecut=    51.00 Ry     beta= 0.40
     Davidson diagonalization with overlap
     ethr =  7.79E-11,  avg # of iterations =  3.0

     negative rho (up, down):  2.248E-01 0.000E+00

     total cpu time spent up to now is       50.8 secs

     End of self-consistent calculation

     Number of k-points >= 100: set verbosity='high' to print the bands.

     the Fermi energy is  -323.8548 ev

!    total energy              =    -712.77884961 Ry
     Harris-Foulkes estimate   =    -712.77884961 Ry
     estimated scf accuracy    <          2.3E-10 Ry

     total all-electron energy =    -16167.864625 Ry

     The total energy is the sum of the following terms:

     one-electron contribution =    -316.86407730 Ry
     hartree contribution      =      54.82959702 Ry
     xc contribution           =     -28.95974308 Ry
     ewald contribution        =     -36.56760685 Ry
     one-center paw contrib.   =    -385.20837283 Ry
     smearing contrib. (-TS)   =      -0.00864656 Ry

     convergence has been achieved in  14 iterations

     negative rho (up, down):  2.248E-01 0.000E+00

     Forces acting on atoms (cartesian axes, Ry/au):

     atom    1 type  1   force =     0.00000000    0.00000000    0.00000000
     atom    2 type  2   force =    -0.00000000    0.00000000    0.00000000
     atom    3 type  3   force =     0.00000000    0.00000000    0.00000000

     Total force =     0.000000     Total SCF correction =     0.000000


     Computing stress (Cartesian axis) and pressure


     negative rho (up, down):  2.248E-01 0.000E+00
          total   stress  (Ry/bohr**3)                   (kbar)     P=********
  -0.14355367  -0.00000000  -0.00000000     -21117.47     -0.00     -0.00
   0.00000000  -0.14355367   0.00000000          0.00 -21117.47      0.00
  -0.00000000   0.00000000  -0.14355367         -0.00      0.00 -21117.47


     Writing output data file NNaCs.save/

     init_run     :      1.42s CPU      1.61s WALL (       1 calls)
     electrons    :     44.27s CPU     47.43s WALL (       1 calls)
     forces       :      0.44s CPU      0.45s WALL (       1 calls)
     stress       :      1.17s CPU      1.19s WALL (       1 calls)

     Called by init_run:
     wfcinit      :      1.01s CPU      1.06s WALL (       1 calls)
     potinit      :      0.08s CPU      0.15s WALL (       1 calls)
     hinit0       :      0.26s CPU      0.32s WALL (       1 calls)

     Called by electrons:
     c_bands      :     37.88s CPU     39.90s WALL (      14 calls)
     sum_band     :      4.75s CPU      5.05s WALL (      14 calls)
     v_of_rho     :      0.17s CPU      0.18s WALL (      15 calls)
     newd         :      0.69s CPU      0.71s WALL (      15 calls)
     PAW_pot      :      0.80s CPU      1.67s WALL (      15 calls)
     mix_rho      :      0.06s CPU      0.06s WALL (      14 calls)

     Called by c_bands:
     init_us_2    :      1.56s CPU      1.66s WALL (    3410 calls)
     cegterg      :     35.75s CPU     37.67s WALL (    1540 calls)

     Called by sum_band:
     sum_band:bec :      0.04s CPU      0.04s WALL (    1540 calls)
     addusdens    :      0.61s CPU      0.62s WALL (      14 calls)

     Called by *egterg:
     h_psi        :     25.05s CPU     26.41s WALL (    8832 calls)
     s_psi        :      2.21s CPU      2.34s WALL (    8832 calls)
     g_psi        :      0.12s CPU      0.13s WALL (    7182 calls)
     cdiaghg      :      1.81s CPU      1.89s WALL (    8722 calls)

     Called by h_psi:
     h_psi:pot    :     24.74s CPU     26.09s WALL (    8832 calls)
     h_psi:calbec :      3.47s CPU      3.70s WALL (    8832 calls)
     vloc_psi     :     18.64s CPU     19.59s WALL (    8832 calls)
     add_vuspsi   :      2.58s CPU      2.76s WALL (    8832 calls)

     General routines
     calbec       :      4.50s CPU      4.77s WALL (   10922 calls)
     fft          :      0.07s CPU      0.07s WALL (     191 calls)
     ffts         :      0.00s CPU      0.00s WALL (      14 calls)
     fftw         :     16.78s CPU     17.69s WALL (  110772 calls)

     Parallel routines
     fft_scatt_xy :      2.68s CPU      2.83s WALL (  110977 calls)
     fft_scatt_yz :      5.01s CPU      5.30s WALL (  110977 calls)

     PWSCF        :    49.08s CPU        52.58s WALL


   This run was terminated on:  13:15: 7  23Oct2018            

=------------------------------------------------------------------------------=
   JOB DONE.
=------------------------------------------------------------------------------=
