
     Program PWSCF v.6.3MaX starts on 23Oct2018 at 16:58:37 

     This program is part of the open-source Quantum ESPRESSO suite
     for quantum simulation of materials; please cite
         "P. Giannozzi et al., J. Phys.:Condens. Matter 21 395502 (2009);
         "P. Giannozzi et al., J. Phys.:Condens. Matter 29 465901 (2017);
          URL http://www.quantum-espresso.org", 
     in publications or presentations arising from this work. More details at
     http://www.quantum-espresso.org/quote

     Parallel version (MPI), running on     8 processors

     MPI processes distributed on     1 nodes
     R & G space division:  proc/nbgrp/npool/nimage =       8
     Waiting for input...
     Reading input from standard input
Warning: card &CELL ignored
Warning: card                CELL_DYNAMICS = 'BFGS' , ignored
Warning: card / ignored

     Current dimensions of program PWSCF are:
     Max number of different atomic species (ntypx) = 10
     Max number of k-points (npk) =  40000
     Max angular momentum in pseudopotentials (lmaxx) =  3
               file N.pbe-n-kjpaw_psl.1.0.0.UPF: wavefunction(s)  2S renormalized
               file Na.pbe-spnl-kjpaw_psl.1.0.0.UPF: wavefunction(s)  2P renormalized

     Subspace diagonalization in iterative solution of the eigenvalue problem:
     a serial algorithm will be used


     Parallelization info
     --------------------
     sticks:   dense  smooth     PW     G-vecs:    dense   smooth      PW
     Min         343     343     96                11886    11886    1790
     Max         344     344     97                11888    11888    1794
     Sum        2749    2749    769                95097    95097   14331



     bravais-lattice index     =            2
     lattice parameter (alat)  =      15.8000  a.u.
     unit-cell volume          =     986.0780 (a.u.)^3
     number of atoms/cell      =            3
     number of atomic types    =            3
     number of electrons       =         9.00
     number of Kohn-Sham states=            9
     kinetic-energy cutoff     =      80.0000  Ry
     charge density cutoff     =     320.0000  Ry
     convergence threshold     =      1.0E-09
     mixing beta               =       0.4000
     number of iterations used =            8  plain     mixing
     Exchange-correlation      = SLA PW PBX PBC ( 1  4  3  4 0 0)

     celldm(1)=  15.800000  celldm(2)=   0.000000  celldm(3)=   0.000000
     celldm(4)=   0.000000  celldm(5)=   0.000000  celldm(6)=   0.000000

     crystal axes: (cart. coord. in units of alat)
               a(1) = (  -0.500000   0.000000   0.500000 )  
               a(2) = (   0.000000   0.500000   0.500000 )  
               a(3) = (  -0.500000   0.500000   0.000000 )  

     reciprocal axes: (cart. coord. in units 2 pi/alat)
               b(1) = ( -1.000000 -1.000000  1.000000 )  
               b(2) = (  1.000000  1.000000  1.000000 )  
               b(3) = ( -1.000000  1.000000 -1.000000 )  


     PseudoPot. # 1 for N  read from file:
     ./ps/N.pbe-n-kjpaw_psl.1.0.0.UPF
     MD5 check sum: 200139db3989ad6e773ddd42f12fc3a8
     Pseudo is Projector augmented-wave + core cor, Zval =  5.0
     Generated using "atomic" code by A. Dal Corso v.6.3
     Shape of augmentation charge: PSQ
     Using radial grid of 1085 points,  4 beta functions with: 
                l(1) =   0
                l(2) =   0
                l(3) =   1
                l(4) =   1
     Q(r) pseudized with 0 coefficients 


     PseudoPot. # 2 for Na read from file:
     ./ps/Na.pbe-spnl-kjpaw_psl.1.0.0.UPF
     MD5 check sum: 09e782c158f17eb2240230c4112357ee
     Pseudo is Projector augmented-wave + core cor, Zval =  9.0
     Generated using "atomic" code by A. Dal Corso v.6.3
     Shape of augmentation charge: PSQ
     Using radial grid of 1121 points,  4 beta functions with: 
                l(1) =   0
                l(2) =   0
                l(3) =   1
                l(4) =   1
     Q(r) pseudized with 0 coefficients 


     PseudoPot. # 3 for Cs read from file:
     ./ps/Cs.pbe-spnl-kjpaw_psl.1.0.0.UPF
     MD5 check sum: f98336d4a4407e24c1ab1e3bc36275e8
     Pseudo is Projector augmented-wave + core cor, Zval = -5.0
     Generated using "atomic" code by A. Dal Corso v.6.2.2
     Shape of augmentation charge: PSQ
     Using radial grid of 1251 points,  6 beta functions with: 
                l(1) =   0
                l(2) =   0
                l(3) =   1
                l(4) =   1
                l(5) =   2
                l(6) =   2
     Q(r) pseudized with 0 coefficients 


     atomic species   valence    mass     pseudopotential
        N              5.00    14.00670     N ( 1.00)
        Na             9.00    22.98977     Na( 1.00)
        Cs            -5.00   132.90545     Cs( 1.00)

     24 Sym. Ops. (no inversion) found



   Cartesian axes

     site n.     atom                  positions (alat units)
         1           N   tau(   1) = (   0.0000000   0.0000000   0.0000000  )
         2           Na  tau(   2) = (  -0.2500000   0.2500000   0.2500000  )
         3           Cs  tau(   3) = (  -0.7500000   0.7500000   0.7500000  )

     number of k points=   110  Methfessel-Paxton smearing, width (Ry)=  0.0200

     Number of k-points >= 100: set verbosity='high' to print them.

     Dense  grid:    95097 G-vectors     FFT dimensions: (  64,  64,  64)

     Estimated max dynamical RAM per process >      78.67 MB

     Estimated total dynamical RAM >     629.35 MB

     Check: negative/imaginary core charge=   -0.000002    0.000000

     Initial potential from superposition of free atoms

     starting charge   22.95298, renormalised to    9.00000
     Starting wfcs are   14 randomized atomic wfcs
     Checking if some PAW data can be deallocated... 

     total cpu time spent up to now is        7.2 secs

     Self-consistent Calculation

     iteration #  1     ecut=    80.00 Ry     beta= 0.40
     Davidson diagonalization with overlap
     ethr =  1.00E-02,  avg # of iterations =  5.0

     total cpu time spent up to now is       23.4 secs

     total energy              =    -700.83220241 Ry
     Harris-Foulkes estimate   =    -729.75457289 Ry
     estimated scf accuracy    <      50.25476544 Ry

     iteration #  2     ecut=    80.00 Ry     beta= 0.40
     Davidson diagonalization with overlap
     ethr =  1.00E-02,  avg # of iterations =  3.0

     total cpu time spent up to now is       34.5 secs

     total energy              =    -692.22272298 Ry
     Harris-Foulkes estimate   =    -702.68105769 Ry
     estimated scf accuracy    <      12.01262139 Ry

     iteration #  3     ecut=    80.00 Ry     beta= 0.40
     Davidson diagonalization with overlap
     ethr =  1.00E-02,  avg # of iterations =  2.0

     total cpu time spent up to now is       45.2 secs

     total energy              =    -695.08285946 Ry
     Harris-Foulkes estimate   =    -695.81279144 Ry
     estimated scf accuracy    <       1.37767134 Ry

     iteration #  4     ecut=    80.00 Ry     beta= 0.40
     Davidson diagonalization with overlap
     ethr =  1.00E-02,  avg # of iterations =  2.0

     negative rho (up, down):  3.731E-06 0.000E+00

     total cpu time spent up to now is       54.3 secs

     total energy              =    -695.17861830 Ry
     Harris-Foulkes estimate   =    -695.35589698 Ry
     estimated scf accuracy    <       0.27148051 Ry

     iteration #  5     ecut=    80.00 Ry     beta= 0.40
     Davidson diagonalization with overlap
     ethr =  3.02E-03,  avg # of iterations =  2.0

     negative rho (up, down):  4.064E-04 0.000E+00

     total cpu time spent up to now is       62.9 secs

     total energy              =    -695.17620156 Ry
     Harris-Foulkes estimate   =    -695.24932506 Ry
     estimated scf accuracy    <       0.11605466 Ry

     iteration #  6     ecut=    80.00 Ry     beta= 0.40
     Davidson diagonalization with overlap
     ethr =  1.29E-03,  avg # of iterations =  1.0

     negative rho (up, down):  8.890E-04 0.000E+00

     total cpu time spent up to now is       70.7 secs

     total energy              =    -695.19796946 Ry
     Harris-Foulkes estimate   =    -695.19798944 Ry
     estimated scf accuracy    <       0.00007328 Ry

     iteration #  7     ecut=    80.00 Ry     beta= 0.40
     Davidson diagonalization with overlap
     ethr =  8.14E-07,  avg # of iterations = 15.3

     negative rho (up, down):  7.281E-04 0.000E+00

     total cpu time spent up to now is      101.2 secs

     total energy              =    -695.19885916 Ry
     Harris-Foulkes estimate   =    -695.19887971 Ry
     estimated scf accuracy    <       0.00002519 Ry

     iteration #  8     ecut=    80.00 Ry     beta= 0.40
     Davidson diagonalization with overlap
     ethr =  2.80E-07,  avg # of iterations =  2.4

     negative rho (up, down):  8.104E-04 0.000E+00

     total cpu time spent up to now is      111.1 secs

     total energy              =    -695.19886113 Ry
     Harris-Foulkes estimate   =    -695.19886258 Ry
     estimated scf accuracy    <       0.00000511 Ry

     iteration #  9     ecut=    80.00 Ry     beta= 0.40
     Davidson diagonalization with overlap
     ethr =  5.68E-08,  avg # of iterations =  1.0

     negative rho (up, down):  7.951E-04 0.000E+00

     total cpu time spent up to now is      119.0 secs

     total energy              =    -695.19885903 Ry
     Harris-Foulkes estimate   =    -695.19886128 Ry
     estimated scf accuracy    <       0.00000144 Ry

     iteration # 10     ecut=    80.00 Ry     beta= 0.40
     Davidson diagonalization with overlap
     ethr =  1.60E-08,  avg # of iterations =  2.1

     negative rho (up, down):  7.943E-04 0.000E+00

     total cpu time spent up to now is      128.3 secs

     total energy              =    -695.19885963 Ry
     Harris-Foulkes estimate   =    -695.19885962 Ry
     estimated scf accuracy    <       0.00000003 Ry

     iteration # 11     ecut=    80.00 Ry     beta= 0.40
     Davidson diagonalization with overlap
     ethr =  2.99E-10,  avg # of iterations =  2.2

     negative rho (up, down):  7.943E-04 0.000E+00

     total cpu time spent up to now is      138.2 secs

     total energy              =    -695.19885958 Ry
     Harris-Foulkes estimate   =    -695.19885964 Ry
     estimated scf accuracy    <       0.00000003 Ry

     iteration # 12     ecut=    80.00 Ry     beta= 0.40
     Davidson diagonalization with overlap
     ethr =  2.89E-10,  avg # of iterations =  2.0

     negative rho (up, down):  7.949E-04 0.000E+00

     total cpu time spent up to now is      147.5 secs

     End of self-consistent calculation

     Number of k-points >= 100: set verbosity='high' to print the bands.

     the Fermi energy is  -283.8423 ev

!    total energy              =    -695.19885959 Ry
     Harris-Foulkes estimate   =    -695.19885960 Ry
     estimated scf accuracy    <          7.2E-10 Ry

     total all-electron energy =    -16150.284635 Ry

     The total energy is the sum of the following terms:

     one-electron contribution =    -305.13812385 Ry
     hartree contribution      =      57.45312058 Ry
     xc contribution           =     -29.05200651 Ry
     ewald contribution        =     -33.83660828 Ry
     one-center paw contrib.   =    -384.61959963 Ry
     smearing contrib. (-TS)   =      -0.00564190 Ry

     convergence has been achieved in  12 iterations

     negative rho (up, down):  7.949E-04 0.000E+00

     Forces acting on atoms (cartesian axes, Ry/au):

     atom    1 type  1   force =     0.00000000   -0.00000000    0.00000000
     atom    2 type  2   force =     0.00000000    0.00000000    0.00000000
     atom    3 type  3   force =     0.00000000    0.00000000    0.00000000

     Total force =     0.000000     Total SCF correction =     0.000000


     Computing stress (Cartesian axis) and pressure


     negative rho (up, down):  7.949E-04 0.000E+00
          total   stress  (Ry/bohr**3)                   (kbar)     P=-9909.37
  -0.06736254   0.00000000   0.00000000      -9909.37      0.00      0.00
   0.00000000  -0.06736254   0.00000000          0.00  -9909.37      0.00
   0.00000000   0.00000000  -0.06736254          0.00      0.00  -9909.37


     Writing output data file NNaCs.save/

     init_run     :      5.01s CPU      5.46s WALL (       1 calls)
     electrons    :    132.37s CPU    140.25s WALL (       1 calls)
     forces       :      1.38s CPU      1.42s WALL (       1 calls)
     stress       :      3.30s CPU      3.38s WALL (       1 calls)

     Called by init_run:
     wfcinit      :      4.24s CPU      4.41s WALL (       1 calls)
     potinit      :      0.12s CPU      0.23s WALL (       1 calls)
     hinit0       :      0.43s CPU      0.56s WALL (       1 calls)

     Called by electrons:
     c_bands      :    108.12s CPU    113.88s WALL (      12 calls)
     sum_band     :     21.31s CPU     22.59s WALL (      12 calls)
     v_of_rho     :      0.47s CPU      0.59s WALL (      13 calls)
     newd         :      1.78s CPU      1.83s WALL (      13 calls)
     PAW_pot      :      0.65s CPU      1.43s WALL (      13 calls)
     mix_rho      :      0.16s CPU      0.16s WALL (      12 calls)

     Called by c_bands:
     init_us_2    :      3.50s CPU      3.62s WALL (    2970 calls)
     cegterg      :    103.38s CPU    108.95s WALL (    1320 calls)

     Called by sum_band:
     sum_band:bec :      0.04s CPU      0.04s WALL (    1320 calls)
     addusdens    :      1.45s CPU      1.48s WALL (      12 calls)

     Called by *egterg:
     h_psi        :     88.73s CPU     93.89s WALL (    5816 calls)
     s_psi        :      4.59s CPU      4.72s WALL (    5816 calls)
     g_psi        :      0.21s CPU      0.21s WALL (    4386 calls)
     cdiaghg      :      1.09s CPU      1.13s WALL (    5706 calls)

     Called by h_psi:
     h_psi:pot    :     87.91s CPU     93.04s WALL (    5816 calls)
     h_psi:calbec :      7.18s CPU      7.64s WALL (    5816 calls)
     vloc_psi     :     75.57s CPU     80.02s WALL (    5816 calls)
     add_vuspsi   :      5.10s CPU      5.33s WALL (    5816 calls)

     General routines
     calbec       :      9.72s CPU     10.33s WALL (    7686 calls)
     fft          :      0.27s CPU      0.31s WALL (     169 calls)
     ffts         :      0.02s CPU      0.02s WALL (      12 calls)
     fftw         :     61.14s CPU     65.07s WALL (   88712 calls)

     Parallel routines
     fft_scatt_xy :     11.87s CPU     12.60s WALL (   88893 calls)
     fft_scatt_yz :     13.42s CPU     14.69s WALL (   88893 calls)

     PWSCF        :  2m23.94s CPU     2m32.57s WALL


   This run was terminated on:  17: 1:10  23Oct2018            

=------------------------------------------------------------------------------=
   JOB DONE.
=------------------------------------------------------------------------------=
