
     Program PWSCF v.6.3MaX starts on 23Oct2018 at 20:20:40 

     This program is part of the open-source Quantum ESPRESSO suite
     for quantum simulation of materials; please cite
         "P. Giannozzi et al., J. Phys.:Condens. Matter 21 395502 (2009);
         "P. Giannozzi et al., J. Phys.:Condens. Matter 29 465901 (2017);
          URL http://www.quantum-espresso.org", 
     in publications or presentations arising from this work. More details at
     http://www.quantum-espresso.org/quote

     Parallel version (MPI), running on     8 processors

     MPI processes distributed on     1 nodes
     R & G space division:  proc/nbgrp/npool/nimage =       8
     Waiting for input...
     Reading input from standard input
Warning: card &CELL ignored
Warning: card                CELL_DYNAMICS = 'BFGS' , ignored
Warning: card / ignored

     Current dimensions of program PWSCF are:
     Max number of different atomic species (ntypx) = 10
     Max number of k-points (npk) =  40000
     Max angular momentum in pseudopotentials (lmaxx) =  3
     Message from routine iosys:
     minimal I/O required, wf_collect reset to FALSE
               file N.pbe-n-kjpaw_psl.1.0.0.UPF: wavefunction(s)  2S renormalized
               file Na.pbe-spnl-kjpaw_psl.1.0.0.UPF: wavefunction(s)  2P renormalized

     Subspace diagonalization in iterative solution of the eigenvalue problem:
     a serial algorithm will be used


     Parallelization info
     --------------------
     sticks:   dense  smooth     PW     G-vecs:    dense   smooth      PW
     Min         191     191     56                 4961     4961     796
     Max         192     192     57                 4963     4963     797
     Sum        1531    1531    451                39693    39693    6375



     bravais-lattice index     =            2
     lattice parameter (alat)  =      11.8000  a.u.
     unit-cell volume          =     410.7580 (a.u.)^3
     number of atoms/cell      =            3
     number of atomic types    =            3
     number of electrons       =         9.00
     number of Kohn-Sham states=            9
     kinetic-energy cutoff     =      80.0000  Ry
     charge density cutoff     =     320.0000  Ry
     convergence threshold     =      1.0E-09
     mixing beta               =       0.4000
     number of iterations used =            8  plain     mixing
     Exchange-correlation      = SLA PW PBX PBC ( 1  4  3  4 0 0)

     celldm(1)=  11.800000  celldm(2)=   0.000000  celldm(3)=   0.000000
     celldm(4)=   0.000000  celldm(5)=   0.000000  celldm(6)=   0.000000

     crystal axes: (cart. coord. in units of alat)
               a(1) = (  -0.500000   0.000000   0.500000 )  
               a(2) = (   0.000000   0.500000   0.500000 )  
               a(3) = (  -0.500000   0.500000   0.000000 )  

     reciprocal axes: (cart. coord. in units 2 pi/alat)
               b(1) = ( -1.000000 -1.000000  1.000000 )  
               b(2) = (  1.000000  1.000000  1.000000 )  
               b(3) = ( -1.000000  1.000000 -1.000000 )  


     PseudoPot. # 1 for N  read from file:
     ./ps/N.pbe-n-kjpaw_psl.1.0.0.UPF
     MD5 check sum: 200139db3989ad6e773ddd42f12fc3a8
     Pseudo is Projector augmented-wave + core cor, Zval =  5.0
     Generated using "atomic" code by A. Dal Corso v.6.3
     Shape of augmentation charge: PSQ
     Using radial grid of 1085 points,  4 beta functions with: 
                l(1) =   0
                l(2) =   0
                l(3) =   1
                l(4) =   1
     Q(r) pseudized with 0 coefficients 


     PseudoPot. # 2 for Na read from file:
     ./ps/Na.pbe-spnl-kjpaw_psl.1.0.0.UPF
     MD5 check sum: 09e782c158f17eb2240230c4112357ee
     Pseudo is Projector augmented-wave + core cor, Zval =  9.0
     Generated using "atomic" code by A. Dal Corso v.6.3
     Shape of augmentation charge: PSQ
     Using radial grid of 1121 points,  4 beta functions with: 
                l(1) =   0
                l(2) =   0
                l(3) =   1
                l(4) =   1
     Q(r) pseudized with 0 coefficients 


     PseudoPot. # 3 for Cs read from file:
     ./ps/Cs.pbe-spnl-kjpaw_psl.1.0.0.UPF
     MD5 check sum: f98336d4a4407e24c1ab1e3bc36275e8
     Pseudo is Projector augmented-wave + core cor, Zval = -5.0
     Generated using "atomic" code by A. Dal Corso v.6.2.2
     Shape of augmentation charge: PSQ
     Using radial grid of 1251 points,  6 beta functions with: 
                l(1) =   0
                l(2) =   0
                l(3) =   1
                l(4) =   1
                l(5) =   2
                l(6) =   2
     Q(r) pseudized with 0 coefficients 


     atomic species   valence    mass     pseudopotential
        N              5.00    14.00670     N ( 1.00)
        Na             9.00    22.98977     Na( 1.00)
        Cs            -5.00   132.90545     Cs( 1.00)

     24 Sym. Ops. (no inversion) found



   Cartesian axes

     site n.     atom                  positions (alat units)
         1           N   tau(   1) = (   0.0000000   0.0000000   0.0000000  )
         2           Na  tau(   2) = (  -0.2500000   0.2500000   0.2500000  )
         3           Cs  tau(   3) = (  -0.7500000   0.7500000   0.7500000  )

     number of k points=   110  Methfessel-Paxton smearing, width (Ry)=  0.0200

     Number of k-points >= 100: set verbosity='high' to print them.

     Dense  grid:    39693 G-vectors     FFT dimensions: (  48,  48,  48)

     Estimated max dynamical RAM per process >      36.39 MB

     Estimated total dynamical RAM >     291.08 MB

     Check: negative/imaginary core charge=   -0.000003    0.000000

     Initial potential from superposition of free atoms

     starting charge   22.95298, renormalised to    9.00000
     Starting wfcs are   14 randomized atomic wfcs
     Checking if some PAW data can be deallocated... 

     total cpu time spent up to now is        5.9 secs

     Self-consistent Calculation

     iteration #  1     ecut=    80.00 Ry     beta= 0.40
     Davidson diagonalization with overlap
     c_bands:  2 eigenvalues not converged
     c_bands:  2 eigenvalues not converged
     c_bands:  1 eigenvalues not converged
     c_bands:  1 eigenvalues not converged
     c_bands:  1 eigenvalues not converged
     c_bands:  1 eigenvalues not converged
     c_bands:  1 eigenvalues not converged
     c_bands:  1 eigenvalues not converged
     c_bands:  1 eigenvalues not converged
     c_bands:  3 eigenvalues not converged
     c_bands:  2 eigenvalues not converged
     c_bands:  1 eigenvalues not converged
     c_bands:  2 eigenvalues not converged
     ethr =  1.00E-02,  avg # of iterations =  8.3

     negative rho (up, down):  2.152E-01 0.000E+00

     total cpu time spent up to now is       15.0 secs

     total energy              =    -876.72309920 Ry
     Harris-Foulkes estimate   =    -890.42373497 Ry
     estimated scf accuracy    <      25.81905612 Ry

     iteration #  2     ecut=    80.00 Ry     beta= 0.40
     Davidson diagonalization with overlap
     ethr =  1.00E-02,  avg # of iterations =  3.5

     negative rho (up, down):  2.820E-01 0.000E+00

     total cpu time spent up to now is       19.9 secs

     total energy              =    -877.74792362 Ry
     Harris-Foulkes estimate   =    -878.93235920 Ry
     estimated scf accuracy    <       1.93687376 Ry

     iteration #  3     ecut=    80.00 Ry     beta= 0.40
     Davidson diagonalization with overlap
     ethr =  1.00E-02,  avg # of iterations =  1.0

     negative rho (up, down):  3.395E-01 0.000E+00

     total cpu time spent up to now is       23.2 secs

     total energy              =    -877.29914733 Ry
     Harris-Foulkes estimate   =    -877.76350589 Ry
     estimated scf accuracy    <       0.53623864 Ry

     iteration #  4     ecut=    80.00 Ry     beta= 0.40
     Davidson diagonalization with overlap
     ethr =  5.96E-03,  avg # of iterations =  1.5

     negative rho (up, down):  3.120E-01 0.000E+00

     total cpu time spent up to now is       26.8 secs

     total energy              =    -877.32392907 Ry
     Harris-Foulkes estimate   =    -877.32386229 Ry
     estimated scf accuracy    <       0.00185240 Ry

     iteration #  5     ecut=    80.00 Ry     beta= 0.40
     Davidson diagonalization with overlap
     c_bands:  1 eigenvalues not converged
     c_bands:  2 eigenvalues not converged
     c_bands:  1 eigenvalues not converged
     c_bands:  1 eigenvalues not converged
     c_bands:  3 eigenvalues not converged
     c_bands:  1 eigenvalues not converged
     c_bands:  1 eigenvalues not converged
     c_bands:  2 eigenvalues not converged
     c_bands:  1 eigenvalues not converged
     c_bands:  1 eigenvalues not converged
     c_bands:  2 eigenvalues not converged
     c_bands:  1 eigenvalues not converged
     c_bands:  2 eigenvalues not converged
     c_bands:  1 eigenvalues not converged
     c_bands:  1 eigenvalues not converged
     c_bands:  1 eigenvalues not converged
     c_bands:  1 eigenvalues not converged
     c_bands:  1 eigenvalues not converged
     c_bands:  1 eigenvalues not converged
     c_bands:  1 eigenvalues not converged
     c_bands:  1 eigenvalues not converged
     c_bands:  2 eigenvalues not converged
     c_bands:  1 eigenvalues not converged
     c_bands:  1 eigenvalues not converged
     c_bands:  1 eigenvalues not converged
     c_bands:  1 eigenvalues not converged
     c_bands:  1 eigenvalues not converged
     c_bands:  1 eigenvalues not converged
     c_bands:  4 eigenvalues not converged
     c_bands:  2 eigenvalues not converged
     c_bands:  1 eigenvalues not converged
     c_bands:  1 eigenvalues not converged
     c_bands:  1 eigenvalues not converged
     c_bands:  1 eigenvalues not converged
     c_bands:  1 eigenvalues not converged
     c_bands:  1 eigenvalues not converged
     c_bands:  2 eigenvalues not converged
     c_bands:  1 eigenvalues not converged
     c_bands:  1 eigenvalues not converged
     c_bands:  1 eigenvalues not converged
     c_bands:  1 eigenvalues not converged
     c_bands:  1 eigenvalues not converged
     c_bands:  2 eigenvalues not converged
     c_bands:  1 eigenvalues not converged
     c_bands:  1 eigenvalues not converged
     c_bands:  1 eigenvalues not converged
     c_bands:  2 eigenvalues not converged
     c_bands:  1 eigenvalues not converged
     c_bands:  2 eigenvalues not converged
     c_bands:  2 eigenvalues not converged
     c_bands:  2 eigenvalues not converged
     c_bands:  1 eigenvalues not converged
     c_bands:  2 eigenvalues not converged
     c_bands:  1 eigenvalues not converged
     c_bands:  1 eigenvalues not converged
     c_bands:  1 eigenvalues not converged
     c_bands:  5 eigenvalues not converged
     c_bands:  2 eigenvalues not converged
     c_bands:  1 eigenvalues not converged
     c_bands:  1 eigenvalues not converged
     c_bands:  1 eigenvalues not converged
     c_bands:  2 eigenvalues not converged
     c_bands:  1 eigenvalues not converged
     c_bands:  1 eigenvalues not converged
     c_bands:  1 eigenvalues not converged
     c_bands:  2 eigenvalues not converged
     c_bands:  1 eigenvalues not converged
     c_bands:  1 eigenvalues not converged
     c_bands:  1 eigenvalues not converged
     c_bands:  1 eigenvalues not converged
     c_bands:  1 eigenvalues not converged
     c_bands:  1 eigenvalues not converged
     c_bands:  4 eigenvalues not converged
     c_bands:  1 eigenvalues not converged
     c_bands:  1 eigenvalues not converged
     c_bands:  4 eigenvalues not converged
     c_bands:  4 eigenvalues not converged
     c_bands:  2 eigenvalues not converged
     c_bands:  1 eigenvalues not converged
     c_bands:  1 eigenvalues not converged
     c_bands:  2 eigenvalues not converged
     c_bands:  1 eigenvalues not converged
     c_bands:  2 eigenvalues not converged
     c_bands:  1 eigenvalues not converged
     c_bands:  1 eigenvalues not converged
     c_bands:  2 eigenvalues not converged
     c_bands:  1 eigenvalues not converged
     c_bands:  1 eigenvalues not converged
     c_bands:  1 eigenvalues not converged
     c_bands:  2 eigenvalues not converged
     c_bands:  5 eigenvalues not converged
     c_bands:  5 eigenvalues not converged
     c_bands:  2 eigenvalues not converged
     c_bands:  2 eigenvalues not converged
     c_bands:  1 eigenvalues not converged
     c_bands:  5 eigenvalues not converged
     c_bands:  1 eigenvalues not converged
     c_bands:  1 eigenvalues not converged
     ethr =  2.06E-05,  avg # of iterations = 19.3

     negative rho (up, down):  3.101E-01 0.000E+00

     total cpu time spent up to now is       41.6 secs

     total energy              =    -877.33757439 Ry
     Harris-Foulkes estimate   =    -877.34111855 Ry
     estimated scf accuracy    <       1.69792968 Ry

     iteration #  6     ecut=    80.00 Ry     beta= 0.40
     Davidson diagonalization with overlap
     ethr =  2.06E-05,  avg # of iterations =  2.8

     negative rho (up, down):  3.179E-01 0.000E+00

     total cpu time spent up to now is       45.6 secs

     total energy              =    -877.33567188 Ry
     Harris-Foulkes estimate   =    -877.33920604 Ry
     estimated scf accuracy    <       1.22358119 Ry

     iteration #  7     ecut=    80.00 Ry     beta= 0.40
     Davidson diagonalization with overlap
     ethr =  2.06E-05,  avg # of iterations =  1.2

     negative rho (up, down):  3.112E-01 0.000E+00

     total cpu time spent up to now is       49.1 secs

     total energy              =    -877.32465322 Ry
     Harris-Foulkes estimate   =    -877.33653375 Ry
     estimated scf accuracy    <       0.44837030 Ry

     iteration #  8     ecut=    80.00 Ry     beta= 0.40
     Davidson diagonalization with overlap
     ethr =  2.06E-05,  avg # of iterations =  2.1

     negative rho (up, down):  3.207E-01 0.000E+00

     total cpu time spent up to now is       53.1 secs

     total energy              =    -877.32526283 Ry
     Harris-Foulkes estimate   =    -877.34121594 Ry
     estimated scf accuracy    <       0.45795322 Ry

     iteration #  9     ecut=    80.00 Ry     beta= 0.40
     Davidson diagonalization with overlap
     ethr =  2.06E-05,  avg # of iterations =  2.0

     negative rho (up, down):  3.107E-01 0.000E+00

     total cpu time spent up to now is       56.9 secs

     total energy              =    -877.30421336 Ry
     Harris-Foulkes estimate   =    -877.34066962 Ry
     estimated scf accuracy    <       1.39847299 Ry

     iteration # 10     ecut=    80.00 Ry     beta= 0.40
     Davidson diagonalization with overlap
     ethr =  2.06E-05,  avg # of iterations =  3.0

     negative rho (up, down):  3.107E-01 0.000E+00

     total cpu time spent up to now is       61.4 secs

     total energy              =    -877.34431395 Ry
     Harris-Foulkes estimate   =    -877.34656151 Ry
     estimated scf accuracy    <       0.40788667 Ry

     iteration # 11     ecut=    80.00 Ry     beta= 0.40
     Davidson diagonalization with overlap
     ethr =  2.06E-05,  avg # of iterations =  1.0

     negative rho (up, down):  3.149E-01 0.000E+00

     total cpu time spent up to now is       64.9 secs

     total energy              =    -877.33784984 Ry
     Harris-Foulkes estimate   =    -877.34429704 Ry
     estimated scf accuracy    <       0.44445070 Ry

     iteration # 12     ecut=    80.00 Ry     beta= 0.40
     Davidson diagonalization with overlap
     ethr =  2.06E-05,  avg # of iterations =  1.0

     negative rho (up, down):  3.178E-01 0.000E+00

     total cpu time spent up to now is       68.5 secs

     total energy              =    -877.33614096 Ry
     Harris-Foulkes estimate   =    -877.33793269 Ry
     estimated scf accuracy    <       0.32289924 Ry

     iteration # 13     ecut=    80.00 Ry     beta= 0.40
     Davidson diagonalization with overlap
     ethr =  2.06E-05,  avg # of iterations =  1.0

     negative rho (up, down):  3.168E-01 0.000E+00

     total cpu time spent up to now is       72.0 secs

     total energy              =    -877.33503989 Ry
     Harris-Foulkes estimate   =    -877.33640054 Ry
     estimated scf accuracy    <       0.15558085 Ry

     iteration # 14     ecut=    80.00 Ry     beta= 0.40
     Davidson diagonalization with overlap
     ethr =  2.06E-05,  avg # of iterations =  1.0

     negative rho (up, down):  3.225E-01 0.000E+00

     total cpu time spent up to now is       75.4 secs

     total energy              =    -877.33384062 Ry
     Harris-Foulkes estimate   =    -877.33553693 Ry
     estimated scf accuracy    <       0.01249220 Ry

     iteration # 15     ecut=    80.00 Ry     beta= 0.40
     Davidson diagonalization with overlap
     ethr =  2.06E-05,  avg # of iterations =  1.0

     negative rho (up, down):  3.152E-01 0.000E+00

     total cpu time spent up to now is       78.8 secs

     total energy              =    -877.30865600 Ry
     Harris-Foulkes estimate   =    -877.34654064 Ry
     estimated scf accuracy    <       2.67672526 Ry

     iteration # 16     ecut=    80.00 Ry     beta= 0.40
     Davidson diagonalization with overlap
     ethr =  2.06E-05,  avg # of iterations =  2.0

     negative rho (up, down):  3.165E-01 0.000E+00

     total cpu time spent up to now is       82.7 secs

     total energy              =    -877.33625384 Ry
     Harris-Foulkes estimate   =    -877.33899061 Ry
     estimated scf accuracy    <       0.39651100 Ry

     iteration # 17     ecut=    80.00 Ry     beta= 0.40
     Davidson diagonalization with overlap
     ethr =  2.06E-05,  avg # of iterations =  1.0

     negative rho (up, down):  3.176E-01 0.000E+00

     total cpu time spent up to now is       86.4 secs

     total energy              =    -877.33536218 Ry
     Harris-Foulkes estimate   =    -877.33664284 Ry
     estimated scf accuracy    <       0.18306170 Ry

     iteration # 18     ecut=    80.00 Ry     beta= 0.40
     Davidson diagonalization with overlap
     ethr =  2.06E-05,  avg # of iterations =  1.0

     negative rho (up, down):  3.176E-01 0.000E+00

     total cpu time spent up to now is       89.9 secs

     total energy              =    -877.33573987 Ry
     Harris-Foulkes estimate   =    -877.33569042 Ry
     estimated scf accuracy    <       0.03917854 Ry

     iteration # 19     ecut=    80.00 Ry     beta= 0.40
     Davidson diagonalization with overlap
     ethr =  2.06E-05,  avg # of iterations =  1.0

     negative rho (up, down):  3.178E-01 0.000E+00

     total cpu time spent up to now is       93.5 secs

     total energy              =    -877.33574708 Ry
     Harris-Foulkes estimate   =    -877.33574343 Ry
     estimated scf accuracy    <       0.04835035 Ry

     iteration # 20     ecut=    80.00 Ry     beta= 0.40
     Davidson diagonalization with overlap
     ethr =  2.06E-05,  avg # of iterations =  1.0

     negative rho (up, down):  3.177E-01 0.000E+00

     total cpu time spent up to now is       97.0 secs

     total energy              =    -877.33557885 Ry
     Harris-Foulkes estimate   =    -877.33574738 Ry
     estimated scf accuracy    <       0.04886351 Ry

     iteration # 21     ecut=    80.00 Ry     beta= 0.40
     Davidson diagonalization with overlap
     ethr =  2.06E-05,  avg # of iterations =  1.0

     negative rho (up, down):  3.181E-01 0.000E+00

     total cpu time spent up to now is      100.5 secs

     total energy              =    -877.33543667 Ry
     Harris-Foulkes estimate   =    -877.33560527 Ry
     estimated scf accuracy    <       0.02334116 Ry

     iteration # 22     ecut=    80.00 Ry     beta= 0.40
     Davidson diagonalization with overlap
     ethr =  2.06E-05,  avg # of iterations =  1.0

     negative rho (up, down):  3.181E-01 0.000E+00

     total cpu time spent up to now is      103.9 secs

     total energy              =    -877.33549315 Ry
     Harris-Foulkes estimate   =    -877.33549413 Ry
     estimated scf accuracy    <       0.00227737 Ry

     iteration # 23     ecut=    80.00 Ry     beta= 0.40
     Davidson diagonalization with overlap
     ethr =  2.06E-05,  avg # of iterations =  1.0

     negative rho (up, down):  3.181E-01 0.000E+00

     total cpu time spent up to now is      107.4 secs

     total energy              =    -877.33549251 Ry
     Harris-Foulkes estimate   =    -877.33549347 Ry
     estimated scf accuracy    <       0.00208477 Ry

     iteration # 24     ecut=    80.00 Ry     beta= 0.40
     Davidson diagonalization with overlap
     ethr =  2.06E-05,  avg # of iterations =  1.1

     negative rho (up, down):  3.181E-01 0.000E+00

     total cpu time spent up to now is      110.9 secs

     total energy              =    -877.33549816 Ry
     Harris-Foulkes estimate   =    -877.33549269 Ry
     estimated scf accuracy    <       0.00189294 Ry

     iteration # 25     ecut=    80.00 Ry     beta= 0.40
     Davidson diagonalization with overlap
     ethr =  2.06E-05,  avg # of iterations =  1.0

     negative rho (up, down):  3.180E-01 0.000E+00

     total cpu time spent up to now is      114.5 secs

     total energy              =    -877.33547125 Ry
     Harris-Foulkes estimate   =    -877.33549900 Ry
     estimated scf accuracy    <       0.00312869 Ry

     iteration # 26     ecut=    80.00 Ry     beta= 0.40
     Davidson diagonalization with overlap
     ethr =  2.06E-05,  avg # of iterations =  1.0

     negative rho (up, down):  3.180E-01 0.000E+00

     total cpu time spent up to now is      117.9 secs

     total energy              =    -877.33548321 Ry
     Harris-Foulkes estimate   =    -877.33548352 Ry
     estimated scf accuracy    <       0.00004911 Ry

     iteration # 27     ecut=    80.00 Ry     beta= 0.40
     Davidson diagonalization with overlap
     ethr =  5.46E-07,  avg # of iterations =  1.2

     negative rho (up, down):  3.180E-01 0.000E+00

     total cpu time spent up to now is      121.4 secs

     total energy              =    -877.33548340 Ry
     Harris-Foulkes estimate   =    -877.33548341 Ry
     estimated scf accuracy    <       0.00000392 Ry

     iteration # 28     ecut=    80.00 Ry     beta= 0.40
     Davidson diagonalization with overlap
     ethr =  4.35E-08,  avg # of iterations =  1.0

     negative rho (up, down):  3.180E-01 0.000E+00

     total cpu time spent up to now is      124.8 secs

     total energy              =    -877.33548341 Ry
     Harris-Foulkes estimate   =    -877.33548341 Ry
     estimated scf accuracy    <       0.00000231 Ry

     iteration # 29     ecut=    80.00 Ry     beta= 0.40
     Davidson diagonalization with overlap
     ethr =  2.57E-08,  avg # of iterations =  1.0

     negative rho (up, down):  3.180E-01 0.000E+00

     total cpu time spent up to now is      128.3 secs

     total energy              =    -877.33548333 Ry
     Harris-Foulkes estimate   =    -877.33548342 Ry
     estimated scf accuracy    <       0.00000129 Ry

     iteration # 30     ecut=    80.00 Ry     beta= 0.40
     Davidson diagonalization with overlap
     ethr =  1.43E-08,  avg # of iterations =  1.0

     negative rho (up, down):  3.181E-01 0.000E+00

     total cpu time spent up to now is      131.8 secs

     total energy              =    -877.33548345 Ry
     Harris-Foulkes estimate   =    -877.33548334 Ry
     estimated scf accuracy    <       0.00000111 Ry

     iteration # 31     ecut=    80.00 Ry     beta= 0.40
     Davidson diagonalization with overlap
     ethr =  1.23E-08,  avg # of iterations =  1.0

     negative rho (up, down):  3.181E-01 0.000E+00

     total cpu time spent up to now is      135.3 secs

     total energy              =    -877.33548349 Ry
     Harris-Foulkes estimate   =    -877.33548346 Ry
     estimated scf accuracy    <       0.00000007 Ry

     iteration # 32     ecut=    80.00 Ry     beta= 0.40
     Davidson diagonalization with overlap
     ethr =  8.16E-10,  avg # of iterations =  2.3

     negative rho (up, down):  3.182E-01 0.000E+00

     total cpu time spent up to now is      139.4 secs

     total energy              =    -877.33548351 Ry
     Harris-Foulkes estimate   =    -877.33548350 Ry
     estimated scf accuracy    <       0.00000003 Ry

     iteration # 33     ecut=    80.00 Ry     beta= 0.40
     Davidson diagonalization with overlap
     ethr =  3.83E-10,  avg # of iterations =  2.1

     negative rho (up, down):  3.182E-01 0.000E+00

     total cpu time spent up to now is      143.4 secs

     total energy              =    -877.33548352 Ry
     Harris-Foulkes estimate   =    -877.33548352 Ry
     estimated scf accuracy    <       0.00000002 Ry

     iteration # 34     ecut=    80.00 Ry     beta= 0.40
     Davidson diagonalization with overlap
     ethr =  2.35E-10,  avg # of iterations =  1.0

     negative rho (up, down):  3.182E-01 0.000E+00

     total cpu time spent up to now is      146.9 secs

     total energy              =    -877.33548352 Ry
     Harris-Foulkes estimate   =    -877.33548352 Ry
     estimated scf accuracy    <       0.00000001 Ry

     iteration # 35     ecut=    80.00 Ry     beta= 0.40
     Davidson diagonalization with overlap
     ethr =  1.59E-10,  avg # of iterations =  1.0

     negative rho (up, down):  3.182E-01 0.000E+00

     total cpu time spent up to now is      150.3 secs

     total energy              =    -877.33548352 Ry
     Harris-Foulkes estimate   =    -877.33548352 Ry
     estimated scf accuracy    <          1.3E-09 Ry

     iteration # 36     ecut=    80.00 Ry     beta= 0.40
     Davidson diagonalization with overlap
     ethr =  1.39E-11,  avg # of iterations =  2.0

     negative rho (up, down):  3.182E-01 0.000E+00

     total cpu time spent up to now is      154.0 secs

     End of self-consistent calculation

     Number of k-points >= 100: set verbosity='high' to print the bands.

     the Fermi energy is  -634.8444 ev

!    total energy              =    -877.33548352 Ry
     Harris-Foulkes estimate   =    -877.33548352 Ry
     estimated scf accuracy    <          5.7E-11 Ry

     total all-electron energy =    -16332.421259 Ry

     The total energy is the sum of the following terms:

     one-electron contribution =    -433.73492855 Ry
     hartree contribution      =      13.79951882 Ry
     xc contribution           =     -25.59387710 Ry
     ewald contribution        =     -45.30664499 Ry
     one-center paw contrib.   =    -386.48436024 Ry
     smearing contrib. (-TS)   =      -0.01519147 Ry

     convergence has been achieved in  36 iterations

     negative rho (up, down):  3.182E-01 0.000E+00

     Forces acting on atoms (cartesian axes, Ry/au):

     atom    1 type  1   force =     0.00000000    0.00000000   -0.00000000
     atom    2 type  2   force =     0.00000000    0.00000000    0.00000000
     atom    3 type  3   force =     0.00000000    0.00000000   -0.00000000

     Total force =     0.000000     Total SCF correction =     0.000000


     Computing stress (Cartesian axis) and pressure


     negative rho (up, down):  3.182E-01 0.000E+00
          total   stress  (Ry/bohr**3)                   (kbar)     P=********
  -0.82732952  -0.00000000   0.00000000    -121704.35     -0.00      0.00
  -0.00000000  -0.82732952   0.00000000         -0.00-121704.35      0.00
   0.00000000   0.00000000  -0.82732952          0.00      0.00-121704.35


     init_run     :      1.75s CPU      2.95s WALL (       1 calls)
     electrons    :     89.37s CPU    148.09s WALL (       1 calls)
     forces       :      0.48s CPU      0.83s WALL (       1 calls)
     stress       :      1.35s CPU      2.16s WALL (       1 calls)

     Called by init_run:
     wfcinit      :      1.27s CPU      1.99s WALL (       1 calls)
     potinit      :      0.08s CPU      0.22s WALL (       1 calls)
     hinit0       :      0.32s CPU      0.60s WALL (       1 calls)

     Called by electrons:
     c_bands      :     71.51s CPU    117.24s WALL (      36 calls)
     sum_band     :     13.65s CPU     22.18s WALL (      36 calls)
     v_of_rho     :      0.48s CPU      0.84s WALL (      37 calls)
     newd         :      1.48s CPU      2.11s WALL (      37 calls)
     PAW_pot      :      2.13s CPU      5.58s WALL (      37 calls)
     mix_rho      :      0.16s CPU      0.27s WALL (      36 calls)

     Called by c_bands:
     init_us_2    :      2.79s CPU      3.61s WALL (    8250 calls)
     cegterg      :     65.73s CPU    108.19s WALL (    3960 calls)

     Called by sum_band:
     sum_band:bec :      0.06s CPU      0.08s WALL (    3960 calls)
     addusdens    :      1.22s CPU      1.42s WALL (      36 calls)

     Called by *egterg:
     h_psi        :     48.46s CPU     80.75s WALL (   12361 calls)
     s_psi        :      3.13s CPU      4.09s WALL (   12361 calls)
     g_psi        :      0.15s CPU      0.19s WALL (    8291 calls)
     cdiaghg      :      1.73s CPU      2.36s WALL (   12251 calls)

     Called by h_psi:
     h_psi:pot    :     48.02s CPU     80.17s WALL (   12361 calls)
     h_psi:calbec :      6.60s CPU     12.29s WALL (   12361 calls)
     vloc_psi     :     38.04s CPU     63.32s WALL (   12361 calls)
     add_vuspsi   :      3.32s CPU      4.51s WALL (   12361 calls)

     General routines
     calbec       :      9.77s CPU     18.08s WALL (   16871 calls)
     fft          :      0.34s CPU      0.87s WALL (     433 calls)
     ffts         :      0.01s CPU      0.02s WALL (      36 calls)
     fftw         :     41.49s CPU     70.73s WALL (  209206 calls)

     Parallel routines
     fft_scatt_xy :      3.63s CPU      4.86s WALL (  209675 calls)
     fft_scatt_yz :     25.43s CPU     49.73s WALL (  209675 calls)

     PWSCF        :  1m35.03s CPU     2m37.03s WALL


   This run was terminated on:  20:23:17  23Oct2018            

=------------------------------------------------------------------------------=
   JOB DONE.
=------------------------------------------------------------------------------=
