
     Program PWSCF v.6.3MaX starts on 23Oct2018 at 16:42:57 

     This program is part of the open-source Quantum ESPRESSO suite
     for quantum simulation of materials; please cite
         "P. Giannozzi et al., J. Phys.:Condens. Matter 21 395502 (2009);
         "P. Giannozzi et al., J. Phys.:Condens. Matter 29 465901 (2017);
          URL http://www.quantum-espresso.org", 
     in publications or presentations arising from this work. More details at
     http://www.quantum-espresso.org/quote

     Parallel version (MPI), running on     8 processors

     MPI processes distributed on     1 nodes
     R & G space division:  proc/nbgrp/npool/nimage =       8
     Waiting for input...
     Reading input from standard input
Warning: card &CELL ignored
Warning: card                CELL_DYNAMICS = 'BFGS' , ignored
Warning: card / ignored

     Current dimensions of program PWSCF are:
     Max number of different atomic species (ntypx) = 10
     Max number of k-points (npk) =  40000
     Max angular momentum in pseudopotentials (lmaxx) =  3
               file N.pbe-n-kjpaw_psl.1.0.0.UPF: wavefunction(s)  2S renormalized
               file Na.pbe-spnl-kjpaw_psl.1.0.0.UPF: wavefunction(s)  2P renormalized

     Subspace diagonalization in iterative solution of the eigenvalue problem:
     a serial algorithm will be used


     Parallelization info
     --------------------
     sticks:   dense  smooth     PW     G-vecs:    dense   smooth      PW
     Min         322     322     93                10818    10818    1665
     Max         324     324     94                10819    10819    1668
     Sum        2587    2587    745                86547    86547   13323



     bravais-lattice index     =            2
     lattice parameter (alat)  =      15.3000  a.u.
     unit-cell volume          =     895.3943 (a.u.)^3
     number of atoms/cell      =            3
     number of atomic types    =            3
     number of electrons       =         9.00
     number of Kohn-Sham states=            9
     kinetic-energy cutoff     =      80.0000  Ry
     charge density cutoff     =     320.0000  Ry
     convergence threshold     =      1.0E-09
     mixing beta               =       0.4000
     number of iterations used =            8  plain     mixing
     Exchange-correlation      = SLA PW PBX PBC ( 1  4  3  4 0 0)

     celldm(1)=  15.300000  celldm(2)=   0.000000  celldm(3)=   0.000000
     celldm(4)=   0.000000  celldm(5)=   0.000000  celldm(6)=   0.000000

     crystal axes: (cart. coord. in units of alat)
               a(1) = (  -0.500000   0.000000   0.500000 )  
               a(2) = (   0.000000   0.500000   0.500000 )  
               a(3) = (  -0.500000   0.500000   0.000000 )  

     reciprocal axes: (cart. coord. in units 2 pi/alat)
               b(1) = ( -1.000000 -1.000000  1.000000 )  
               b(2) = (  1.000000  1.000000  1.000000 )  
               b(3) = ( -1.000000  1.000000 -1.000000 )  


     PseudoPot. # 1 for N  read from file:
     ./ps/N.pbe-n-kjpaw_psl.1.0.0.UPF
     MD5 check sum: 200139db3989ad6e773ddd42f12fc3a8
     Pseudo is Projector augmented-wave + core cor, Zval =  5.0
     Generated using "atomic" code by A. Dal Corso v.6.3
     Shape of augmentation charge: PSQ
     Using radial grid of 1085 points,  4 beta functions with: 
                l(1) =   0
                l(2) =   0
                l(3) =   1
                l(4) =   1
     Q(r) pseudized with 0 coefficients 


     PseudoPot. # 2 for Na read from file:
     ./ps/Na.pbe-spnl-kjpaw_psl.1.0.0.UPF
     MD5 check sum: 09e782c158f17eb2240230c4112357ee
     Pseudo is Projector augmented-wave + core cor, Zval =  9.0
     Generated using "atomic" code by A. Dal Corso v.6.3
     Shape of augmentation charge: PSQ
     Using radial grid of 1121 points,  4 beta functions with: 
                l(1) =   0
                l(2) =   0
                l(3) =   1
                l(4) =   1
     Q(r) pseudized with 0 coefficients 


     PseudoPot. # 3 for Cs read from file:
     ./ps/Cs.pbe-spnl-kjpaw_psl.1.0.0.UPF
     MD5 check sum: f98336d4a4407e24c1ab1e3bc36275e8
     Pseudo is Projector augmented-wave + core cor, Zval = -5.0
     Generated using "atomic" code by A. Dal Corso v.6.2.2
     Shape of augmentation charge: PSQ
     Using radial grid of 1251 points,  6 beta functions with: 
                l(1) =   0
                l(2) =   0
                l(3) =   1
                l(4) =   1
                l(5) =   2
                l(6) =   2
     Q(r) pseudized with 0 coefficients 


     atomic species   valence    mass     pseudopotential
        N              5.00    14.00670     N ( 1.00)
        Na             9.00    22.98977     Na( 1.00)
        Cs            -5.00   132.90545     Cs( 1.00)

     24 Sym. Ops. (no inversion) found



   Cartesian axes

     site n.     atom                  positions (alat units)
         1           N   tau(   1) = (   0.0000000   0.0000000   0.0000000  )
         2           Na  tau(   2) = (  -0.2500000   0.2500000   0.2500000  )
         3           Cs  tau(   3) = (  -0.7500000   0.7500000   0.7500000  )

     number of k points=   110  Methfessel-Paxton smearing, width (Ry)=  0.0200

     Number of k-points >= 100: set verbosity='high' to print them.

     Dense  grid:    86547 G-vectors     FFT dimensions: (  64,  64,  64)

     Estimated max dynamical RAM per process >      72.38 MB

     Estimated total dynamical RAM >     579.02 MB

     Check: negative/imaginary core charge=   -0.000002    0.000000

     Initial potential from superposition of free atoms

     starting charge   22.95298, renormalised to    9.00000
     Starting wfcs are   14 randomized atomic wfcs
     Checking if some PAW data can be deallocated... 

     total cpu time spent up to now is        6.9 secs

     Self-consistent Calculation

     iteration #  1     ecut=    80.00 Ry     beta= 0.40
     Davidson diagonalization with overlap
     ethr =  1.00E-02,  avg # of iterations = 10.1

     total cpu time spent up to now is       25.2 secs

     total energy              =    -707.60213795 Ry
     Harris-Foulkes estimate   =    -736.14582478 Ry
     estimated scf accuracy    <      49.57997886 Ry

     iteration #  2     ecut=    80.00 Ry     beta= 0.40
     Davidson diagonalization with overlap
     ethr =  1.00E-02,  avg # of iterations =  3.0

     total cpu time spent up to now is       35.9 secs

     total energy              =    -699.31976290 Ry
     Harris-Foulkes estimate   =    -709.48293843 Ry
     estimated scf accuracy    <      11.70880250 Ry

     iteration #  3     ecut=    80.00 Ry     beta= 0.40
     Davidson diagonalization with overlap
     ethr =  1.00E-02,  avg # of iterations =  3.0

     total cpu time spent up to now is       46.4 secs

     total energy              =    -700.83921374 Ry
     Harris-Foulkes estimate   =    -701.43832041 Ry
     estimated scf accuracy    <       1.05147466 Ry

     iteration #  4     ecut=    80.00 Ry     beta= 0.40
     Davidson diagonalization with overlap
     ethr =  1.00E-02,  avg # of iterations =  2.0

     negative rho (up, down):  7.077E-05 0.000E+00

     total cpu time spent up to now is       54.9 secs

     total energy              =    -700.81699812 Ry
     Harris-Foulkes estimate   =    -701.29976084 Ry
     estimated scf accuracy    <       0.63153807 Ry

     iteration #  5     ecut=    80.00 Ry     beta= 0.40
     Davidson diagonalization with overlap
     ethr =  7.02E-03,  avg # of iterations =  4.6

     negative rho (up, down):  4.418E-05 0.000E+00

     total cpu time spent up to now is       64.9 secs

     total energy              =    -702.16183437 Ry
     Harris-Foulkes estimate   =    -702.14346851 Ry
     estimated scf accuracy    <       0.84593172 Ry

     iteration #  6     ecut=    80.00 Ry     beta= 0.40
     Davidson diagonalization with overlap
     ethr =  7.02E-03,  avg # of iterations =  2.2

     negative rho (up, down):  5.026E-05 0.000E+00

     total cpu time spent up to now is       73.1 secs

     total energy              =    -702.19158632 Ry
     Harris-Foulkes estimate   =    -702.16451308 Ry
     estimated scf accuracy    <       0.83238691 Ry

     iteration #  7     ecut=    80.00 Ry     beta= 0.40
     Davidson diagonalization with overlap
     ethr =  7.02E-03,  avg # of iterations =  1.1

     negative rho (up, down):  4.653E-05 0.000E+00

     total cpu time spent up to now is       80.6 secs

     total energy              =    -702.14068691 Ry
     Harris-Foulkes estimate   =    -702.19248091 Ry
     estimated scf accuracy    <       0.80053619 Ry

     iteration #  8     ecut=    80.00 Ry     beta= 0.40
     Davidson diagonalization with overlap
     ethr =  7.02E-03,  avg # of iterations =  1.1

     negative rho (up, down):  6.441E-05 0.000E+00

     total cpu time spent up to now is       88.2 secs

     total energy              =    -701.81322002 Ry
     Harris-Foulkes estimate   =    -702.14153269 Ry
     estimated scf accuracy    <       0.66866609 Ry

     iteration #  9     ecut=    80.00 Ry     beta= 0.40
     Davidson diagonalization with overlap
     ethr =  7.02E-03,  avg # of iterations =  1.0

     negative rho (up, down):  1.456E-02 0.000E+00

     total cpu time spent up to now is       95.5 secs

     total energy              =    -701.66775543 Ry
     Harris-Foulkes estimate   =    -701.81985772 Ry
     estimated scf accuracy    <       0.19145285 Ry

     iteration # 10     ecut=    80.00 Ry     beta= 0.40
     Davidson diagonalization with overlap
     ethr =  2.13E-03,  avg # of iterations =  2.0

     negative rho (up, down):  4.227E-02 0.000E+00

     total cpu time spent up to now is      103.4 secs

     total energy              =    -701.70723339 Ry
     Harris-Foulkes estimate   =    -701.67698953 Ry
     estimated scf accuracy    <       0.01024754 Ry

     iteration # 11     ecut=    80.00 Ry     beta= 0.40
     Davidson diagonalization with overlap
     ethr =  1.14E-04,  avg # of iterations =  4.1

     negative rho (up, down):  1.586E-02 0.000E+00

     total cpu time spent up to now is      113.4 secs

     total energy              =    -701.64043795 Ry
     Harris-Foulkes estimate   =    -701.79790208 Ry
     estimated scf accuracy    <       1.18908557 Ry

     iteration # 12     ecut=    80.00 Ry     beta= 0.40
     Davidson diagonalization with overlap
     ethr =  1.14E-04,  avg # of iterations =  2.1

     negative rho (up, down):  6.258E-04 0.000E+00

     total cpu time spent up to now is      121.5 secs

     total energy              =    -701.68042928 Ry
     Harris-Foulkes estimate   =    -701.68522861 Ry
     estimated scf accuracy    <       0.01347369 Ry

     iteration # 13     ecut=    80.00 Ry     beta= 0.40
     Davidson diagonalization with overlap
     ethr =  1.14E-04,  avg # of iterations =  2.0

     negative rho (up, down):  8.024E-04 0.000E+00

     total cpu time spent up to now is      129.5 secs

     total energy              =    -701.70861578 Ry
     Harris-Foulkes estimate   =    -701.68063236 Ry
     estimated scf accuracy    <       0.00110156 Ry

     iteration # 14     ecut=    80.00 Ry     beta= 0.40
     Davidson diagonalization with overlap
     ethr =  1.22E-05,  avg # of iterations = 12.3

     negative rho (up, down):  7.988E-04 0.000E+00

     total cpu time spent up to now is      149.5 secs

     total energy              =    -701.71672320 Ry
     Harris-Foulkes estimate   =    -701.70968512 Ry
     estimated scf accuracy    <       0.03967469 Ry

     iteration # 15     ecut=    80.00 Ry     beta= 0.40
     Davidson diagonalization with overlap
     ethr =  1.22E-05,  avg # of iterations =  1.1

     negative rho (up, down):  4.573E-04 0.000E+00

     total cpu time spent up to now is      156.9 secs

     total energy              =    -701.71055587 Ry
     Harris-Foulkes estimate   =    -701.71675092 Ry
     estimated scf accuracy    <       0.04937566 Ry

     iteration # 16     ecut=    80.00 Ry     beta= 0.40
     Davidson diagonalization with overlap
     ethr =  1.22E-05,  avg # of iterations =  1.2

     negative rho (up, down):  4.030E-04 0.000E+00

     total cpu time spent up to now is      164.4 secs

     total energy              =    -701.70658467 Ry
     Harris-Foulkes estimate   =    -701.71056923 Ry
     estimated scf accuracy    <       0.04092920 Ry

     iteration # 17     ecut=    80.00 Ry     beta= 0.40
     Davidson diagonalization with overlap
     ethr =  1.22E-05,  avg # of iterations =  1.0

     negative rho (up, down):  3.999E-04 0.000E+00

     total cpu time spent up to now is      171.8 secs

     total energy              =    -701.70553862 Ry
     Harris-Foulkes estimate   =    -701.70659441 Ry
     estimated scf accuracy    <       0.03546646 Ry

     iteration # 18     ecut=    80.00 Ry     beta= 0.40
     Davidson diagonalization with overlap
     ethr =  1.22E-05,  avg # of iterations =  1.0

     negative rho (up, down):  4.039E-04 0.000E+00

     total cpu time spent up to now is      179.1 secs

     total energy              =    -701.70469885 Ry
     Harris-Foulkes estimate   =    -701.70553966 Ry
     estimated scf accuracy    <       0.03402048 Ry

     iteration # 19     ecut=    80.00 Ry     beta= 0.40
     Davidson diagonalization with overlap
     ethr =  1.22E-05,  avg # of iterations =  1.0

     negative rho (up, down):  3.797E-04 0.000E+00

     total cpu time spent up to now is      186.3 secs

     total energy              =    -701.70698603 Ry
     Harris-Foulkes estimate   =    -701.70469934 Ry
     estimated scf accuracy    <       0.03286560 Ry

     iteration # 20     ecut=    80.00 Ry     beta= 0.40
     Davidson diagonalization with overlap
     ethr =  1.22E-05,  avg # of iterations =  1.0

     negative rho (up, down):  7.257E-04 0.000E+00

     total cpu time spent up to now is      193.6 secs

     total energy              =    -701.67950009 Ry
     Harris-Foulkes estimate   =    -701.70698837 Ry
     estimated scf accuracy    <       0.03599747 Ry

     iteration # 21     ecut=    80.00 Ry     beta= 0.40
     Davidson diagonalization with overlap
     ethr =  1.22E-05,  avg # of iterations =  8.3

     negative rho (up, down):  6.205E-04 0.000E+00

     total cpu time spent up to now is      210.2 secs

     total energy              =    -701.68083388 Ry
     Harris-Foulkes estimate   =    -701.68083786 Ry
     estimated scf accuracy    <       0.00002352 Ry

     iteration # 22     ecut=    80.00 Ry     beta= 0.40
     Davidson diagonalization with overlap
     ethr =  2.61E-07,  avg # of iterations =  3.1

     negative rho (up, down):  5.687E-04 0.000E+00

     total cpu time spent up to now is      219.9 secs

     total energy              =    -701.68083375 Ry
     Harris-Foulkes estimate   =    -701.68083649 Ry
     estimated scf accuracy    <       0.00001359 Ry

     iteration # 23     ecut=    80.00 Ry     beta= 0.40
     Davidson diagonalization with overlap
     ethr =  1.51E-07,  avg # of iterations =  1.0

     negative rho (up, down):  5.659E-04 0.000E+00

     total cpu time spent up to now is      227.2 secs

     total energy              =    -701.68083239 Ry
     Harris-Foulkes estimate   =    -701.68083385 Ry
     estimated scf accuracy    <       0.00000763 Ry

     iteration # 24     ecut=    80.00 Ry     beta= 0.40
     Davidson diagonalization with overlap
     ethr =  8.47E-08,  avg # of iterations =  1.0

     negative rho (up, down):  5.520E-04 0.000E+00

     total cpu time spent up to now is      234.6 secs

     total energy              =    -701.68083340 Ry
     Harris-Foulkes estimate   =    -701.68083244 Ry
     estimated scf accuracy    <       0.00000425 Ry

     iteration # 25     ecut=    80.00 Ry     beta= 0.40
     Davidson diagonalization with overlap
     ethr =  4.73E-08,  avg # of iterations =  1.0

     negative rho (up, down):  5.658E-04 0.000E+00

     total cpu time spent up to now is      242.0 secs

     total energy              =    -701.68083085 Ry
     Harris-Foulkes estimate   =    -701.68083343 Ry
     estimated scf accuracy    <       0.00000689 Ry

     iteration # 26     ecut=    80.00 Ry     beta= 0.40
     Davidson diagonalization with overlap
     ethr =  4.73E-08,  avg # of iterations =  1.0

     negative rho (up, down):  5.832E-04 0.000E+00

     total cpu time spent up to now is      249.3 secs

     total energy              =    -701.68083093 Ry
     Harris-Foulkes estimate   =    -701.68083117 Ry
     estimated scf accuracy    <       0.00000066 Ry

     iteration # 27     ecut=    80.00 Ry     beta= 0.40
     Davidson diagonalization with overlap
     ethr =  7.36E-09,  avg # of iterations =  1.4

     negative rho (up, down):  5.689E-04 0.000E+00

     total cpu time spent up to now is      256.9 secs

     total energy              =    -701.68083093 Ry
     Harris-Foulkes estimate   =    -701.68083098 Ry
     estimated scf accuracy    <       0.00000009 Ry

     iteration # 28     ecut=    80.00 Ry     beta= 0.40
     Davidson diagonalization with overlap
     ethr =  9.62E-10,  avg # of iterations =  2.7

     negative rho (up, down):  5.651E-04 0.000E+00

     total cpu time spent up to now is      265.4 secs

     End of self-consistent calculation

     Number of k-points >= 100: set verbosity='high' to print the bands.

     the Fermi energy is  -290.2786 ev

!    total energy              =    -701.68083095 Ry
     Harris-Foulkes estimate   =    -701.68083095 Ry
     estimated scf accuracy    <          6.3E-10 Ry

     total all-electron energy =    -16156.766607 Ry

     The total energy is the sum of the following terms:

     one-electron contribution =    -309.63186345 Ry
     hartree contribution      =      56.50206302 Ry
     xc contribution           =     -28.99208292 Ry
     ewald contribution        =     -34.94237980 Ry
     one-center paw contrib.   =    -384.61092596 Ry
     smearing contrib. (-TS)   =      -0.00564185 Ry

     convergence has been achieved in  28 iterations

     negative rho (up, down):  5.651E-04 0.000E+00

     Forces acting on atoms (cartesian axes, Ry/au):

     atom    1 type  1   force =     0.00000000   -0.00000000    0.00000000
     atom    2 type  2   force =     0.00000000    0.00000000    0.00000000
     atom    3 type  3   force =     0.00000000    0.00000000    0.00000000

     Total force =     0.000000     Total SCF correction =     0.000000


     Computing stress (Cartesian axis) and pressure


     negative rho (up, down):  5.651E-04 0.000E+00
          total   stress  (Ry/bohr**3)                   (kbar)     P=********
  -0.07603595   0.00000000  -0.00000000     -11185.27      0.00     -0.00
   0.00000000  -0.07603595   0.00000000          0.00 -11185.27      0.00
  -0.00000000   0.00000000  -0.07603595         -0.00      0.00 -11185.27


     Writing output data file NNaCs.save/

     init_run     :      4.66s CPU      5.03s WALL (       1 calls)
     electrons    :    249.85s CPU    258.58s WALL (       1 calls)
     forces       :      1.27s CPU      1.30s WALL (       1 calls)
     stress       :      3.01s CPU      3.02s WALL (       1 calls)

     Called by init_run:
     wfcinit      :      3.89s CPU      4.05s WALL (       1 calls)
     potinit      :      0.14s CPU      0.22s WALL (       1 calls)
     hinit0       :      0.43s CPU      0.54s WALL (       1 calls)

     Called by electrons:
     c_bands      :    194.86s CPU    200.03s WALL (      28 calls)
     sum_band     :     48.46s CPU     50.08s WALL (      28 calls)
     v_of_rho     :      1.06s CPU      1.34s WALL (      29 calls)
     newd         :      3.64s CPU      3.67s WALL (      29 calls)
     PAW_pot      :      1.51s CPU      3.19s WALL (      29 calls)
     mix_rho      :      0.41s CPU      0.42s WALL (      28 calls)

     Called by c_bands:
     init_us_2    :      6.66s CPU      6.82s WALL (    6490 calls)
     cegterg      :    184.75s CPU    189.60s WALL (    3080 calls)

     Called by sum_band:
     sum_band:bec :      0.08s CPU      0.09s WALL (    3080 calls)
     addusdens    :      3.11s CPU      3.13s WALL (      28 calls)

     Called by *egterg:
     h_psi        :    157.47s CPU    161.89s WALL (   11604 calls)
     s_psi        :      8.17s CPU      8.35s WALL (   11604 calls)
     g_psi        :      0.33s CPU      0.34s WALL (    8414 calls)
     cdiaghg      :      2.05s CPU      2.09s WALL (   11494 calls)

     Called by h_psi:
     h_psi:pot    :    156.26s CPU    160.65s WALL (   11604 calls)
     h_psi:calbec :     13.44s CPU     13.87s WALL (   11604 calls)
     vloc_psi     :    133.18s CPU    136.91s WALL (   11604 calls)
     add_vuspsi   :      9.54s CPU      9.79s WALL (   11604 calls)

     General routines
     calbec       :     18.09s CPU     18.67s WALL (   15234 calls)
     fft          :      0.53s CPU      0.64s WALL (     345 calls)
     ffts         :      0.06s CPU      0.06s WALL (      28 calls)
     fftw         :    112.99s CPU    116.45s WALL (  172708 calls)

     Parallel routines
     fft_scatt_xy :     25.43s CPU     26.23s WALL (  173081 calls)
     fft_scatt_yz :     18.73s CPU     19.50s WALL (  173081 calls)

     PWSCF        :  4m20.70s CPU     4m30.02s WALL


   This run was terminated on:  16:47:27  23Oct2018            

=------------------------------------------------------------------------------=
   JOB DONE.
=------------------------------------------------------------------------------=
