
     Program PWSCF v.6.3MaX starts on 23Oct2018 at 13:11:49 

     This program is part of the open-source Quantum ESPRESSO suite
     for quantum simulation of materials; please cite
         "P. Giannozzi et al., J. Phys.:Condens. Matter 21 395502 (2009);
         "P. Giannozzi et al., J. Phys.:Condens. Matter 29 465901 (2017);
          URL http://www.quantum-espresso.org", 
     in publications or presentations arising from this work. More details at
     http://www.quantum-espresso.org/quote

     Parallel version (MPI), running on     8 processors

     MPI processes distributed on     1 nodes
     R & G space division:  proc/nbgrp/npool/nimage =       8
     Waiting for input...
     Reading input from standard input
Warning: card &CELL ignored
Warning: card                CELL_DYNAMICS = 'BFGS' , ignored
Warning: card / ignored

     Current dimensions of program PWSCF are:
     Max number of different atomic species (ntypx) = 10
     Max number of k-points (npk) =  40000
     Max angular momentum in pseudopotentials (lmaxx) =  3
               file N.pbe-n-kjpaw_psl.1.0.0.UPF: wavefunction(s)  2S renormalized
               file Na.pbe-spnl-kjpaw_psl.1.0.0.UPF: wavefunction(s)  2P renormalized

     Subspace diagonalization in iterative solution of the eigenvalue problem:
     a serial algorithm will be used


     Parallelization info
     --------------------
     sticks:   dense  smooth     PW     G-vecs:    dense   smooth      PW
     Min         166     166     49                 3984     3984     650
     Max         167     167     50                 3986     3986     652
     Sum        1333    1333    397                31879    31879    5209



     bravais-lattice index     =            2
     lattice parameter (alat)  =      14.6200  a.u.
     unit-cell volume          =     781.2358 (a.u.)^3
     number of atoms/cell      =            3
     number of atomic types    =            3
     number of electrons       =         9.00
     number of Kohn-Sham states=            9
     kinetic-energy cutoff     =      45.0000  Ry
     charge density cutoff     =     180.0000  Ry
     convergence threshold     =      1.0E-09
     mixing beta               =       0.4000
     number of iterations used =            8  plain     mixing
     Exchange-correlation      = SLA PW PBX PBC ( 1  4  3  4 0 0)

     celldm(1)=  14.620000  celldm(2)=   0.000000  celldm(3)=   0.000000
     celldm(4)=   0.000000  celldm(5)=   0.000000  celldm(6)=   0.000000

     crystal axes: (cart. coord. in units of alat)
               a(1) = (  -0.500000   0.000000   0.500000 )  
               a(2) = (   0.000000   0.500000   0.500000 )  
               a(3) = (  -0.500000   0.500000   0.000000 )  

     reciprocal axes: (cart. coord. in units 2 pi/alat)
               b(1) = ( -1.000000 -1.000000  1.000000 )  
               b(2) = (  1.000000  1.000000  1.000000 )  
               b(3) = ( -1.000000  1.000000 -1.000000 )  


     PseudoPot. # 1 for N  read from file:
     ./../ps/N.pbe-n-kjpaw_psl.1.0.0.UPF
     MD5 check sum: 200139db3989ad6e773ddd42f12fc3a8
     Pseudo is Projector augmented-wave + core cor, Zval =  5.0
     Generated using "atomic" code by A. Dal Corso v.6.3
     Shape of augmentation charge: PSQ
     Using radial grid of 1085 points,  4 beta functions with: 
                l(1) =   0
                l(2) =   0
                l(3) =   1
                l(4) =   1
     Q(r) pseudized with 0 coefficients 


     PseudoPot. # 2 for Na read from file:
     ./../ps/Na.pbe-spnl-kjpaw_psl.1.0.0.UPF
     MD5 check sum: 09e782c158f17eb2240230c4112357ee
     Pseudo is Projector augmented-wave + core cor, Zval =  9.0
     Generated using "atomic" code by A. Dal Corso v.6.3
     Shape of augmentation charge: PSQ
     Using radial grid of 1121 points,  4 beta functions with: 
                l(1) =   0
                l(2) =   0
                l(3) =   1
                l(4) =   1
     Q(r) pseudized with 0 coefficients 


     PseudoPot. # 3 for Cs read from file:
     ./../ps/Cs.pbe-spnl-kjpaw_psl.1.0.0.UPF
     MD5 check sum: f98336d4a4407e24c1ab1e3bc36275e8
     Pseudo is Projector augmented-wave + core cor, Zval = -5.0
     Generated using "atomic" code by A. Dal Corso v.6.2.2
     Shape of augmentation charge: PSQ
     Using radial grid of 1251 points,  6 beta functions with: 
                l(1) =   0
                l(2) =   0
                l(3) =   1
                l(4) =   1
                l(5) =   2
                l(6) =   2
     Q(r) pseudized with 0 coefficients 


     atomic species   valence    mass     pseudopotential
        N              5.00    14.00670     N ( 1.00)
        Na             9.00    22.98977     Na( 1.00)
        Cs            -5.00   132.90545     Cs( 1.00)

     24 Sym. Ops. (no inversion) found



   Cartesian axes

     site n.     atom                  positions (alat units)
         1           N   tau(   1) = (   0.0000000   0.0000000   0.0000000  )
         2           Na  tau(   2) = (  -0.2500000   0.2500000   0.2500000  )
         3           Cs  tau(   3) = (  -0.7500000   0.7500000   0.7500000  )

     number of k points=   110  Methfessel-Paxton smearing, width (Ry)=  0.0200

     Number of k-points >= 100: set verbosity='high' to print them.

     Dense  grid:    31879 G-vectors     FFT dimensions: (  45,  45,  45)

     Estimated max dynamical RAM per process >      30.30 MB

     Estimated total dynamical RAM >     242.40 MB

     Check: negative/imaginary core charge=   -0.000010    0.000000

     Initial potential from superposition of free atoms

     starting charge   22.95298, renormalised to    9.00000
     Starting wfcs are   14 randomized atomic wfcs
     Checking if some PAW data can be deallocated... 

     total cpu time spent up to now is        3.1 secs

     Self-consistent Calculation

     iteration #  1     ecut=    45.00 Ry     beta= 0.40
     Davidson diagonalization with overlap
     ethr =  1.00E-02,  avg # of iterations = 12.2

     total cpu time spent up to now is        8.1 secs

     total energy              =    -717.95945909 Ry
     Harris-Foulkes estimate   =    -745.05710097 Ry
     estimated scf accuracy    <      46.74430439 Ry

     iteration #  2     ecut=    45.00 Ry     beta= 0.40
     Davidson diagonalization with overlap
     ethr =  1.00E-02,  avg # of iterations =  3.0

     negative rho (up, down):  1.413E-06 0.000E+00

     total cpu time spent up to now is       10.8 secs

     total energy              =    -709.54774929 Ry
     Harris-Foulkes estimate   =    -719.59298139 Ry
     estimated scf accuracy    <      11.40321309 Ry

     iteration #  3     ecut=    45.00 Ry     beta= 0.40
     Davidson diagonalization with overlap
     ethr =  1.00E-02,  avg # of iterations = 10.1

     negative rho (up, down):  8.665E-02 0.000E+00

     total cpu time spent up to now is       15.9 secs

     total energy              =    -712.47680470 Ry
     Harris-Foulkes estimate   =    -713.26998002 Ry
     estimated scf accuracy    <       1.30343069 Ry

     iteration #  4     ecut=    45.00 Ry     beta= 0.40
     Davidson diagonalization with overlap
     ethr =  1.00E-02,  avg # of iterations =  3.1

     negative rho (up, down):  1.689E-01 0.000E+00

     total cpu time spent up to now is       18.3 secs

     total energy              =    -712.71750073 Ry
     Harris-Foulkes estimate   =    -712.90662359 Ry
     estimated scf accuracy    <       0.29239845 Ry

     iteration #  5     ecut=    45.00 Ry     beta= 0.40
     Davidson diagonalization with overlap
     ethr =  3.25E-03,  avg # of iterations =  5.1

     negative rho (up, down):  2.299E-01 0.000E+00

     total cpu time spent up to now is       21.3 secs

     total energy              =    -712.72056881 Ry
     Harris-Foulkes estimate   =    -712.87290673 Ry
     estimated scf accuracy    <       0.24253257 Ry

     iteration #  6     ecut=    45.00 Ry     beta= 0.40
     Davidson diagonalization with overlap
     ethr =  2.69E-03,  avg # of iterations =  2.0

     negative rho (up, down):  2.288E-01 0.000E+00

     total cpu time spent up to now is       23.5 secs

     total energy              =    -712.76810778 Ry
     Harris-Foulkes estimate   =    -712.76811383 Ry
     estimated scf accuracy    <       0.00002895 Ry

     iteration #  7     ecut=    45.00 Ry     beta= 0.40
     Davidson diagonalization with overlap
     ethr =  3.22E-07,  avg # of iterations = 13.4

     negative rho (up, down):  2.268E-01 0.000E+00

     total cpu time spent up to now is       29.8 secs

     total energy              =    -712.76976543 Ry
     Harris-Foulkes estimate   =    -712.76980643 Ry
     estimated scf accuracy    <       0.00005852 Ry

     iteration #  8     ecut=    45.00 Ry     beta= 0.40
     Davidson diagonalization with overlap
     ethr =  3.22E-07,  avg # of iterations =  2.0

     negative rho (up, down):  2.282E-01 0.000E+00

     total cpu time spent up to now is       32.1 secs

     total energy              =    -712.76977680 Ry
     Harris-Foulkes estimate   =    -712.76977686 Ry
     estimated scf accuracy    <       0.00000864 Ry

     iteration #  9     ecut=    45.00 Ry     beta= 0.40
     Davidson diagonalization with overlap
     ethr =  9.60E-08,  avg # of iterations =  1.0

     negative rho (up, down):  2.280E-01 0.000E+00

     total cpu time spent up to now is       34.0 secs

     total energy              =    -712.76977469 Ry
     Harris-Foulkes estimate   =    -712.76977702 Ry
     estimated scf accuracy    <       0.00000286 Ry

     iteration # 10     ecut=    45.00 Ry     beta= 0.40
     Davidson diagonalization with overlap
     ethr =  3.18E-08,  avg # of iterations =  2.0

     negative rho (up, down):  2.279E-01 0.000E+00

     total cpu time spent up to now is       36.2 secs

     total energy              =    -712.76977470 Ry
     Harris-Foulkes estimate   =    -712.76977506 Ry
     estimated scf accuracy    <       0.00000042 Ry

     iteration # 11     ecut=    45.00 Ry     beta= 0.40
     Davidson diagonalization with overlap
     ethr =  4.66E-09,  avg # of iterations =  2.6

     negative rho (up, down):  2.279E-01 0.000E+00

     total cpu time spent up to now is       38.5 secs

     total energy              =    -712.76977480 Ry
     Harris-Foulkes estimate   =    -712.76977480 Ry
     estimated scf accuracy    <       0.00000002 Ry

     iteration # 12     ecut=    45.00 Ry     beta= 0.40
     Davidson diagonalization with overlap
     ethr =  2.37E-10,  avg # of iterations =  2.7

     negative rho (up, down):  2.279E-01 0.000E+00

     total cpu time spent up to now is       40.9 secs

     total energy              =    -712.76977480 Ry
     Harris-Foulkes estimate   =    -712.76977480 Ry
     estimated scf accuracy    <       0.00000002 Ry

     iteration # 13     ecut=    45.00 Ry     beta= 0.40
     Davidson diagonalization with overlap
     ethr =  2.12E-10,  avg # of iterations =  1.0

     negative rho (up, down):  2.279E-01 0.000E+00

     total cpu time spent up to now is       42.9 secs

     total energy              =    -712.76977482 Ry
     Harris-Foulkes estimate   =    -712.76977480 Ry
     estimated scf accuracy    <          6.6E-09 Ry

     iteration # 14     ecut=    45.00 Ry     beta= 0.40
     Davidson diagonalization with overlap
     ethr =  7.30E-11,  avg # of iterations =  3.0

     negative rho (up, down):  2.279E-01 0.000E+00

     total cpu time spent up to now is       45.4 secs

     End of self-consistent calculation

     Number of k-points >= 100: set verbosity='high' to print the bands.

     the Fermi energy is  -323.8244 ev

!    total energy              =    -712.76977482 Ry
     Harris-Foulkes estimate   =    -712.76977482 Ry
     estimated scf accuracy    <          3.4E-10 Ry

     total all-electron energy =    -16167.855551 Ry

     The total energy is the sum of the following terms:

     one-electron contribution =    -316.83761111 Ry
     hartree contribution      =      54.79948199 Ry
     xc contribution           =     -28.95344580 Ry
     ewald contribution        =     -36.56760685 Ry
     one-center paw contrib.   =    -385.20195002 Ry
     smearing contrib. (-TS)   =      -0.00864303 Ry

     convergence has been achieved in  14 iterations

     negative rho (up, down):  2.279E-01 0.000E+00

     Forces acting on atoms (cartesian axes, Ry/au):

     atom    1 type  1   force =     0.00000000    0.00000000    0.00000000
     atom    2 type  2   force =     0.00000000    0.00000000    0.00000000
     atom    3 type  3   force =     0.00000000    0.00000000   -0.00000000

     Total force =     0.000000     Total SCF correction =     0.000000


     Computing stress (Cartesian axis) and pressure


     negative rho (up, down):  2.279E-01 0.000E+00
          total   stress  (Ry/bohr**3)                   (kbar)     P=********
  -0.14368995   0.00000000   0.00000000     -21137.52      0.00      0.00
   0.00000000  -0.14368995   0.00000000          0.00 -21137.52      0.00
   0.00000000   0.00000000  -0.14368995          0.00      0.00 -21137.52


     Writing output data file NNaCs.save/

     init_run     :      1.29s CPU      1.48s WALL (       1 calls)
     electrons    :     39.18s CPU     42.32s WALL (       1 calls)
     forces       :      0.35s CPU      0.37s WALL (       1 calls)
     stress       :      0.90s CPU      0.93s WALL (       1 calls)

     Called by init_run:
     wfcinit      :      0.92s CPU      0.98s WALL (       1 calls)
     potinit      :      0.08s CPU      0.15s WALL (       1 calls)
     hinit0       :      0.24s CPU      0.28s WALL (       1 calls)

     Called by electrons:
     c_bands      :     33.40s CPU     35.25s WALL (      14 calls)
     sum_band     :      4.39s CPU      4.74s WALL (      14 calls)
     v_of_rho     :      0.14s CPU      0.16s WALL (      15 calls)
     newd         :      0.54s CPU      0.56s WALL (      15 calls)
     PAW_pot      :      0.73s CPU      1.70s WALL (      15 calls)
     mix_rho      :      0.05s CPU      0.05s WALL (      14 calls)

     Called by c_bands:
     init_us_2    :      1.14s CPU      1.22s WALL (    3410 calls)
     cegterg      :     31.65s CPU     33.38s WALL (    1540 calls)

     Called by sum_band:
     sum_band:bec :      0.03s CPU      0.03s WALL (    1540 calls)
     addusdens    :      0.49s CPU      0.50s WALL (      14 calls)

     Called by *egterg:
     h_psi        :     23.30s CPU     24.61s WALL (    8606 calls)
     s_psi        :      1.74s CPU      1.83s WALL (    8606 calls)
     g_psi        :      0.10s CPU      0.10s WALL (    6956 calls)
     cdiaghg      :      1.63s CPU      1.72s WALL (    8496 calls)

     Called by h_psi:
     h_psi:pot    :     23.03s CPU     24.32s WALL (    8606 calls)
     h_psi:calbec :      2.66s CPU      2.83s WALL (    8606 calls)
     vloc_psi     :     18.38s CPU     19.38s WALL (    8606 calls)
     add_vuspsi   :      1.96s CPU      2.07s WALL (    8606 calls)

     General routines
     calbec       :      3.44s CPU      3.68s WALL (   10696 calls)
     fft          :      0.07s CPU      0.07s WALL (     191 calls)
     ffts         :      0.00s CPU      0.00s WALL (      14 calls)
     fftw         :     18.01s CPU     19.08s WALL (  108098 calls)

     Parallel routines
     fft_scatt_xy :      2.26s CPU      2.39s WALL (  108303 calls)
     fft_scatt_yz :      4.17s CPU      4.46s WALL (  108303 calls)

     PWSCF        :    43.40s CPU        46.88s WALL


   This run was terminated on:  13:12:36  23Oct2018            

=------------------------------------------------------------------------------=
   JOB DONE.
=------------------------------------------------------------------------------=
