
     Program PWSCF v.6.3MaX starts on 24Oct2018 at 13:19:55 

     This program is part of the open-source Quantum ESPRESSO suite
     for quantum simulation of materials; please cite
         "P. Giannozzi et al., J. Phys.:Condens. Matter 21 395502 (2009);
         "P. Giannozzi et al., J. Phys.:Condens. Matter 29 465901 (2017);
          URL http://www.quantum-espresso.org", 
     in publications or presentations arising from this work. More details at
     http://www.quantum-espresso.org/quote

     Parallel version (MPI), running on     8 processors

     MPI processes distributed on     1 nodes
     R & G space division:  proc/nbgrp/npool/nimage =       8
     Waiting for input...
     Reading input from standard input
Warning: card &CELL ignored
Warning: card                CELL_DYNAMICS = 'BFGS' , ignored
Warning: card / ignored

     Current dimensions of program PWSCF are:
     Max number of different atomic species (ntypx) = 10
     Max number of k-points (npk) =  40000
     Max angular momentum in pseudopotentials (lmaxx) =  3
     Message from routine iosys:
     minimal I/O required, wf_collect reset to FALSE
               file N.pbe-n-kjpaw_psl.1.0.0.UPF: wavefunction(s)  2S renormalized
               file Na.pbe-spnl-kjpaw_psl.1.0.0.UPF: wavefunction(s)  2P renormalized

     Subspace diagonalization in iterative solution of the eigenvalue problem:
     a serial algorithm will be used


     Parallelization info
     --------------------
     sticks:   dense  smooth     PW     G-vecs:    dense   smooth      PW
     Min          33      33     12                  371      371      80
     Max          35      35     13                  372      372      81
     Sum         271     271     97                 2975     2975     645



     bravais-lattice index     =            2
     lattice parameter (alat)  =       5.0000  a.u.
     unit-cell volume          =      31.2500 (a.u.)^3
     number of atoms/cell      =            3
     number of atomic types    =            3
     number of electrons       =         9.00
     number of Kohn-Sham states=            9
     kinetic-energy cutoff     =      80.0000  Ry
     charge density cutoff     =     320.0000  Ry
     convergence threshold     =      1.0E-09
     mixing beta               =       0.4000
     number of iterations used =            8  plain     mixing
     Exchange-correlation      = SLA PW PBX PBC ( 1  4  3  4 0 0)

     celldm(1)=   5.000000  celldm(2)=   0.000000  celldm(3)=   0.000000
     celldm(4)=   0.000000  celldm(5)=   0.000000  celldm(6)=   0.000000

     crystal axes: (cart. coord. in units of alat)
               a(1) = (  -0.500000   0.000000   0.500000 )  
               a(2) = (   0.000000   0.500000   0.500000 )  
               a(3) = (  -0.500000   0.500000   0.000000 )  

     reciprocal axes: (cart. coord. in units 2 pi/alat)
               b(1) = ( -1.000000 -1.000000  1.000000 )  
               b(2) = (  1.000000  1.000000  1.000000 )  
               b(3) = ( -1.000000  1.000000 -1.000000 )  


     PseudoPot. # 1 for N  read from file:
     ./ps/N.pbe-n-kjpaw_psl.1.0.0.UPF
     MD5 check sum: 200139db3989ad6e773ddd42f12fc3a8
     Pseudo is Projector augmented-wave + core cor, Zval =  5.0
     Generated using "atomic" code by A. Dal Corso v.6.3
     Shape of augmentation charge: PSQ
     Using radial grid of 1085 points,  4 beta functions with: 
                l(1) =   0
                l(2) =   0
                l(3) =   1
                l(4) =   1
     Q(r) pseudized with 0 coefficients 


     PseudoPot. # 2 for Na read from file:
     ./ps/Na.pbe-spnl-kjpaw_psl.1.0.0.UPF
     MD5 check sum: 09e782c158f17eb2240230c4112357ee
     Pseudo is Projector augmented-wave + core cor, Zval =  9.0
     Generated using "atomic" code by A. Dal Corso v.6.3
     Shape of augmentation charge: PSQ
     Using radial grid of 1121 points,  4 beta functions with: 
                l(1) =   0
                l(2) =   0
                l(3) =   1
                l(4) =   1
     Q(r) pseudized with 0 coefficients 


     PseudoPot. # 3 for Cs read from file:
     ./ps/Cs.pbe-spnl-kjpaw_psl.1.0.0.UPF
     MD5 check sum: f98336d4a4407e24c1ab1e3bc36275e8
     Pseudo is Projector augmented-wave + core cor, Zval = -5.0
     Generated using "atomic" code by A. Dal Corso v.6.2.2
     Shape of augmentation charge: PSQ
     Using radial grid of 1251 points,  6 beta functions with: 
                l(1) =   0
                l(2) =   0
                l(3) =   1
                l(4) =   1
                l(5) =   2
                l(6) =   2
     Q(r) pseudized with 0 coefficients 


     atomic species   valence    mass     pseudopotential
        N              5.00    14.00670     N ( 1.00)
        Na             9.00    22.98977     Na( 1.00)
        Cs            -5.00   132.90545     Cs( 1.00)

     24 Sym. Ops. (no inversion) found



   Cartesian axes

     site n.     atom                  positions (alat units)
         1           N   tau(   1) = (   0.0000000   0.0000000   0.0000000  )
         2           Na  tau(   2) = (  -0.2500000   0.2500000   0.2500000  )
         3           Cs  tau(   3) = (  -0.7500000   0.7500000   0.7500000  )

     number of k points=   110  Methfessel-Paxton smearing, width (Ry)=  0.0200

     Number of k-points >= 100: set verbosity='high' to print them.

     Dense  grid:     2975 G-vectors     FFT dimensions: (  24,  24,  24)

     Estimated max dynamical RAM per process >       5.61 MB

     Estimated total dynamical RAM >      44.86 MB

     Initial potential from superposition of free atoms

     starting charge   22.95298, renormalised to    9.00000
     Starting wfcs are   14 randomized atomic wfcs
     Checking if some PAW data can be deallocated... 

     total cpu time spent up to now is        3.9 secs

     Self-consistent Calculation

     iteration #  1     ecut=    80.00 Ry     beta= 0.40
     Davidson diagonalization with overlap
     ethr =  1.00E-02,  avg # of iterations =  7.6

     negative rho (up, down):  9.295E-01 0.000E+00

     total cpu time spent up to now is        6.1 secs

     total energy              =   -5496.47576448 Ry
     Harris-Foulkes estimate   =   -5548.84452664 Ry
     estimated scf accuracy    <     115.45267438 Ry

     iteration #  2     ecut=    80.00 Ry     beta= 0.40
     Davidson diagonalization with overlap
     ethr =  1.00E-02,  avg # of iterations =  3.7

     negative rho (up, down):  1.367E+00 0.000E+00

     total cpu time spent up to now is        7.4 secs

     total energy              =   -5510.97711853 Ry
     Harris-Foulkes estimate   =   -5518.16494300 Ry
     estimated scf accuracy    <      17.10306486 Ry

     iteration #  3     ecut=    80.00 Ry     beta= 0.40
     Davidson diagonalization with overlap
     ethr =  1.00E-02,  avg # of iterations =  2.0

     negative rho (up, down):  2.626E+00 0.000E+00

     total cpu time spent up to now is        8.4 secs

     total energy              =   -5511.13426855 Ry
     Harris-Foulkes estimate   =   -5512.61706973 Ry
     estimated scf accuracy    <       4.11285344 Ry

     iteration #  4     ecut=    80.00 Ry     beta= 0.40
     Davidson diagonalization with overlap
     ethr =  1.00E-02,  avg # of iterations =  2.4

     negative rho (up, down):  3.047E+00 0.000E+00

     total cpu time spent up to now is        9.4 secs

     total energy              =   -5511.52425306 Ry
     Harris-Foulkes estimate   =   -5511.72253824 Ry
     estimated scf accuracy    <       0.89943792 Ry

     iteration #  5     ecut=    80.00 Ry     beta= 0.40
     Davidson diagonalization with overlap
     ethr =  9.99E-03,  avg # of iterations =  1.0

     negative rho (up, down):  3.155E+00 0.000E+00

     total cpu time spent up to now is       10.2 secs

     total energy              =   -5511.69562796 Ry
     Harris-Foulkes estimate   =   -5511.67335679 Ry
     estimated scf accuracy    <       0.00932953 Ry

     iteration #  6     ecut=    80.00 Ry     beta= 0.40
     Davidson diagonalization with overlap
     ethr =  1.04E-04,  avg # of iterations =  4.0

     negative rho (up, down):  3.182E+00 0.000E+00

     total cpu time spent up to now is       11.6 secs

     total energy              =   -5511.70818170 Ry
     Harris-Foulkes estimate   =   -5511.70730317 Ry
     estimated scf accuracy    <       0.00139582 Ry

     iteration #  7     ecut=    80.00 Ry     beta= 0.40
     Davidson diagonalization with overlap
     ethr =  1.55E-05,  avg # of iterations =  2.0

     negative rho (up, down):  3.187E+00 0.000E+00

     total cpu time spent up to now is       12.6 secs

     total energy              =   -5511.70926771 Ry
     Harris-Foulkes estimate   =   -5511.70957477 Ry
     estimated scf accuracy    <       0.00062764 Ry

     iteration #  8     ecut=    80.00 Ry     beta= 0.40
     Davidson diagonalization with overlap
     ethr =  6.97E-06,  avg # of iterations =  1.0

     negative rho (up, down):  3.191E+00 0.000E+00

     total cpu time spent up to now is       13.4 secs

     total energy              =   -5511.70915592 Ry
     Harris-Foulkes estimate   =   -5511.70930620 Ry
     estimated scf accuracy    <       0.00010953 Ry

     iteration #  9     ecut=    80.00 Ry     beta= 0.40
     Davidson diagonalization with overlap
     ethr =  1.22E-06,  avg # of iterations =  2.3

     negative rho (up, down):  3.191E+00 0.000E+00

     total cpu time spent up to now is       14.3 secs

     total energy              =   -5511.70918782 Ry
     Harris-Foulkes estimate   =   -5511.70919117 Ry
     estimated scf accuracy    <       0.00001532 Ry

     iteration # 10     ecut=    80.00 Ry     beta= 0.40
     Davidson diagonalization with overlap
     ethr =  1.70E-07,  avg # of iterations =  1.1

     negative rho (up, down):  3.192E+00 0.000E+00

     total cpu time spent up to now is       15.1 secs

     total energy              =   -5511.70918125 Ry
     Harris-Foulkes estimate   =   -5511.70918951 Ry
     estimated scf accuracy    <       0.00000256 Ry

     iteration # 11     ecut=    80.00 Ry     beta= 0.40
     Davidson diagonalization with overlap
     ethr =  2.85E-08,  avg # of iterations =  2.5

     negative rho (up, down):  3.192E+00 0.000E+00

     total cpu time spent up to now is       16.1 secs

     total energy              =   -5511.70918277 Ry
     Harris-Foulkes estimate   =   -5511.70918244 Ry
     estimated scf accuracy    <       0.00000004 Ry

     iteration # 12     ecut=    80.00 Ry     beta= 0.40
     Davidson diagonalization with overlap
     ethr =  4.55E-10,  avg # of iterations =  2.4

     negative rho (up, down):  3.192E+00 0.000E+00

     total cpu time spent up to now is       17.0 secs

     total energy              =   -5511.70918153 Ry
     Harris-Foulkes estimate   =   -5511.70918276 Ry
     estimated scf accuracy    <          7.3E-09 Ry

     iteration # 13     ecut=    80.00 Ry     beta= 0.40
     Davidson diagonalization with overlap
     ethr =  8.16E-11,  avg # of iterations =  2.1

     negative rho (up, down):  3.192E+00 0.000E+00

     total cpu time spent up to now is       17.9 secs

     total energy              =   -5511.70918175 Ry
     Harris-Foulkes estimate   =   -5511.70918150 Ry
     estimated scf accuracy    <          1.6E-09 Ry

     iteration # 14     ecut=    80.00 Ry     beta= 0.40
     Davidson diagonalization with overlap
     ethr =  1.82E-11,  avg # of iterations =  1.1

     negative rho (up, down):  3.192E+00 0.000E+00

     total cpu time spent up to now is       18.6 secs

     End of self-consistent calculation

     Number of k-points >= 100: set verbosity='high' to print the bands.

     the Fermi energy is -7509.9368 ev

!    total energy              =   -5511.70918190 Ry
     Harris-Foulkes estimate   =   -5511.70918173 Ry
     estimated scf accuracy    <          9.8E-11 Ry

     total all-electron energy =    -20966.794958 Ry

     The total energy is the sum of the following terms:

     one-electron contribution =   -5002.26580850 Ry
     hartree contribution      =      30.57515400 Ry
     xc contribution           =     -39.87115358 Ry
     ewald contribution        =    -106.92368146 Ry
     one-center paw contrib.   =    -393.22344615 Ry
     smearing contrib. (-TS)   =      -0.00024620 Ry

     convergence has been achieved in  14 iterations

     negative rho (up, down):  3.192E+00 0.000E+00

     Forces acting on atoms (cartesian axes, Ry/au):

     atom    1 type  1   force =     0.00000000    0.00000000   -0.00000000
     atom    2 type  2   force =     0.00000000    0.00000000    0.00000000
     atom    3 type  3   force =     0.00000000    0.00000000    0.00000000

     Total force =     0.000000     Total SCF correction =     0.000000


     Computing stress (Cartesian axis) and pressure


     negative rho (up, down):  3.192E+00 0.000E+00
          total   stress  (Ry/bohr**3)                   (kbar)     P=********
-128.15063976   0.00000000   0.00000000    **********      0.00      0.00
   0.00000000-128.15063976  -0.00000000          0.00**********     -0.00
   0.00000000  -0.00000000-128.15063976          0.00     -0.00**********


     init_run     :      0.43s CPU      0.89s WALL (       1 calls)
     electrons    :      6.46s CPU     14.78s WALL (       1 calls)
     forces       :      0.07s CPU      0.12s WALL (       1 calls)
     stress       :      0.11s CPU      0.24s WALL (       1 calls)

     Called by init_run:
     wfcinit      :      0.18s CPU      0.31s WALL (       1 calls)
     potinit      :      0.12s CPU      0.24s WALL (       1 calls)
     hinit0       :      0.13s CPU      0.32s WALL (       1 calls)

     Called by electrons:
     c_bands      :      5.03s CPU     10.03s WALL (      14 calls)
     sum_band     :      0.64s CPU      1.42s WALL (      14 calls)
     v_of_rho     :      0.02s CPU      0.04s WALL (      15 calls)
     newd         :      0.04s CPU      0.07s WALL (      15 calls)
     PAW_pot      :      0.84s CPU      3.42s WALL (      15 calls)
     mix_rho      :      0.00s CPU      0.01s WALL (      14 calls)

     Called by c_bands:
     init_us_2    :      0.11s CPU      0.14s WALL (    3410 calls)
     cegterg      :      4.82s CPU      9.58s WALL (    1540 calls)

     Called by sum_band:
     sum_band:bec :      0.01s CPU      0.02s WALL (    1540 calls)
     addusdens    :      0.03s CPU      0.03s WALL (      14 calls)

     Called by *egterg:
     h_psi        :      3.30s CPU      6.78s WALL (    5509 calls)
     s_psi        :      0.17s CPU      0.21s WALL (    5509 calls)
     g_psi        :      0.01s CPU      0.01s WALL (    3859 calls)
     cdiaghg      :      0.77s CPU      1.40s WALL (    5399 calls)

     Called by h_psi:
     h_psi:pot    :      3.29s CPU      6.77s WALL (    5509 calls)
     h_psi:calbec :      0.30s CPU      0.81s WALL (    5509 calls)
     vloc_psi     :      2.81s CPU      5.72s WALL (    5509 calls)
     add_vuspsi   :      0.18s CPU      0.22s WALL (    5509 calls)

     General routines
     calbec       :      0.43s CPU      1.20s WALL (    7599 calls)
     fft          :      0.02s CPU      0.07s WALL (     191 calls)
     ffts         :      0.00s CPU      0.00s WALL (      14 calls)
     fftw         :      3.01s CPU      6.44s WALL (   97608 calls)

     Parallel routines
     fft_scatt_xy :      0.25s CPU      0.31s WALL (   97813 calls)
     fft_scatt_yz :      1.37s CPU      4.46s WALL (   97813 calls)

     PWSCF        :     8.86s CPU        19.01s WALL


   This run was terminated on:  13:20:14  24Oct2018            

=------------------------------------------------------------------------------=
   JOB DONE.
=------------------------------------------------------------------------------=
