
     Program PWSCF v.6.3MaX starts on 23Oct2018 at 21: 4: 1 

     This program is part of the open-source Quantum ESPRESSO suite
     for quantum simulation of materials; please cite
         "P. Giannozzi et al., J. Phys.:Condens. Matter 21 395502 (2009);
         "P. Giannozzi et al., J. Phys.:Condens. Matter 29 465901 (2017);
          URL http://www.quantum-espresso.org", 
     in publications or presentations arising from this work. More details at
     http://www.quantum-espresso.org/quote

     Parallel version (MPI), running on     8 processors

     MPI processes distributed on     1 nodes
     R & G space division:  proc/nbgrp/npool/nimage =       8
     Waiting for input...
     Reading input from standard input
Warning: card &CELL ignored
Warning: card                CELL_DYNAMICS = 'BFGS' , ignored
Warning: card / ignored

     Current dimensions of program PWSCF are:
     Max number of different atomic species (ntypx) = 10
     Max number of k-points (npk) =  40000
     Max angular momentum in pseudopotentials (lmaxx) =  3
     Message from routine iosys:
     minimal I/O required, wf_collect reset to FALSE
               file N.pbe-n-kjpaw_psl.1.0.0.UPF: wavefunction(s)  2S renormalized
               file Na.pbe-spnl-kjpaw_psl.1.0.0.UPF: wavefunction(s)  2P renormalized

     Subspace diagonalization in iterative solution of the eigenvalue problem:
     a serial algorithm will be used


     Parallelization info
     --------------------
     sticks:   dense  smooth     PW     G-vecs:    dense   smooth      PW
     Min         203     203     59                 5341     5341     856
     Max         204     204     60                 5342     5342     859
     Sum        1627    1627    475                42735    42735    6855



     bravais-lattice index     =            2
     lattice parameter (alat)  =      12.1000  a.u.
     unit-cell volume          =     442.8902 (a.u.)^3
     number of atoms/cell      =            3
     number of atomic types    =            3
     number of electrons       =         9.00
     number of Kohn-Sham states=            9
     kinetic-energy cutoff     =      80.0000  Ry
     charge density cutoff     =     320.0000  Ry
     convergence threshold     =      1.0E-09
     mixing beta               =       0.4000
     number of iterations used =            8  plain     mixing
     Exchange-correlation      = SLA PW PBX PBC ( 1  4  3  4 0 0)

     celldm(1)=  12.100000  celldm(2)=   0.000000  celldm(3)=   0.000000
     celldm(4)=   0.000000  celldm(5)=   0.000000  celldm(6)=   0.000000

     crystal axes: (cart. coord. in units of alat)
               a(1) = (  -0.500000   0.000000   0.500000 )  
               a(2) = (   0.000000   0.500000   0.500000 )  
               a(3) = (  -0.500000   0.500000   0.000000 )  

     reciprocal axes: (cart. coord. in units 2 pi/alat)
               b(1) = ( -1.000000 -1.000000  1.000000 )  
               b(2) = (  1.000000  1.000000  1.000000 )  
               b(3) = ( -1.000000  1.000000 -1.000000 )  


     PseudoPot. # 1 for N  read from file:
     ./ps/N.pbe-n-kjpaw_psl.1.0.0.UPF
     MD5 check sum: 200139db3989ad6e773ddd42f12fc3a8
     Pseudo is Projector augmented-wave + core cor, Zval =  5.0
     Generated using "atomic" code by A. Dal Corso v.6.3
     Shape of augmentation charge: PSQ
     Using radial grid of 1085 points,  4 beta functions with: 
                l(1) =   0
                l(2) =   0
                l(3) =   1
                l(4) =   1
     Q(r) pseudized with 0 coefficients 


     PseudoPot. # 2 for Na read from file:
     ./ps/Na.pbe-spnl-kjpaw_psl.1.0.0.UPF
     MD5 check sum: 09e782c158f17eb2240230c4112357ee
     Pseudo is Projector augmented-wave + core cor, Zval =  9.0
     Generated using "atomic" code by A. Dal Corso v.6.3
     Shape of augmentation charge: PSQ
     Using radial grid of 1121 points,  4 beta functions with: 
                l(1) =   0
                l(2) =   0
                l(3) =   1
                l(4) =   1
     Q(r) pseudized with 0 coefficients 


     PseudoPot. # 3 for Cs read from file:
     ./ps/Cs.pbe-spnl-kjpaw_psl.1.0.0.UPF
     MD5 check sum: f98336d4a4407e24c1ab1e3bc36275e8
     Pseudo is Projector augmented-wave + core cor, Zval = -5.0
     Generated using "atomic" code by A. Dal Corso v.6.2.2
     Shape of augmentation charge: PSQ
     Using radial grid of 1251 points,  6 beta functions with: 
                l(1) =   0
                l(2) =   0
                l(3) =   1
                l(4) =   1
                l(5) =   2
                l(6) =   2
     Q(r) pseudized with 0 coefficients 


     atomic species   valence    mass     pseudopotential
        N              5.00    14.00670     N ( 1.00)
        Na             9.00    22.98977     Na( 1.00)
        Cs            -5.00   132.90545     Cs( 1.00)

     24 Sym. Ops. (no inversion) found



   Cartesian axes

     site n.     atom                  positions (alat units)
         1           N   tau(   1) = (   0.0000000   0.0000000   0.0000000  )
         2           Na  tau(   2) = (  -0.2500000   0.2500000   0.2500000  )
         3           Cs  tau(   3) = (  -0.7500000   0.7500000   0.7500000  )

     number of k points=   110  Methfessel-Paxton smearing, width (Ry)=  0.0200

     Number of k-points >= 100: set verbosity='high' to print them.

     Dense  grid:    42735 G-vectors     FFT dimensions: (  50,  50,  50)

     Estimated max dynamical RAM per process >      38.96 MB

     Estimated total dynamical RAM >     311.71 MB

     Check: negative/imaginary core charge=   -0.000003    0.000000

     Initial potential from superposition of free atoms

     starting charge   22.95298, renormalised to    9.00000
     Starting wfcs are   14 randomized atomic wfcs
     Checking if some PAW data can be deallocated... 

     total cpu time spent up to now is        5.9 secs

     Self-consistent Calculation

     iteration #  1     ecut=    80.00 Ry     beta= 0.40
     Davidson diagonalization with overlap
     c_bands:  1 eigenvalues not converged
     c_bands:  1 eigenvalues not converged
     c_bands:  1 eigenvalues not converged
     c_bands:  2 eigenvalues not converged
     c_bands:  1 eigenvalues not converged
     c_bands:  1 eigenvalues not converged
     c_bands:  1 eigenvalues not converged
     c_bands:  1 eigenvalues not converged
     c_bands:  2 eigenvalues not converged
     c_bands:  2 eigenvalues not converged
     c_bands:  2 eigenvalues not converged
     c_bands:  2 eigenvalues not converged
     c_bands:  2 eigenvalues not converged
     c_bands:  1 eigenvalues not converged
     c_bands:  2 eigenvalues not converged
     c_bands:  1 eigenvalues not converged
     c_bands:  2 eigenvalues not converged
     ethr =  1.00E-02,  avg # of iterations = 16.7

     negative rho (up, down):  2.516E-02 0.000E+00

     total cpu time spent up to now is       25.4 secs

     total energy              =    -857.61888084 Ry
     Harris-Foulkes estimate   =    -874.37100214 Ry
     estimated scf accuracy    <      31.61574919 Ry

     iteration #  2     ecut=    80.00 Ry     beta= 0.40
     Davidson diagonalization with overlap
     ethr =  1.00E-02,  avg # of iterations =  3.1

     negative rho (up, down):  7.534E-02 0.000E+00

     total cpu time spent up to now is       31.2 secs

     total energy              =    -848.42063562 Ry
     Harris-Foulkes estimate   =    -857.71948721 Ry
     estimated scf accuracy    <      11.06189653 Ry

     iteration #  3     ecut=    80.00 Ry     beta= 0.40
     Davidson diagonalization with overlap
     ethr =  1.00E-02,  avg # of iterations =  9.0

     negative rho (up, down):  7.356E-02 0.000E+00

     total cpu time spent up to now is       43.4 secs

     total energy              =    -873.48817173 Ry
     Harris-Foulkes estimate   =    -875.30040748 Ry
     estimated scf accuracy    <      99.64957421 Ry

     iteration #  4     ecut=    80.00 Ry     beta= 0.40
     Davidson diagonalization with overlap
     ethr =  1.00E-02,  avg # of iterations =  1.2

     negative rho (up, down):  7.343E-02 0.000E+00

     total cpu time spent up to now is       47.7 secs

     total energy              =    -871.78745134 Ry
     Harris-Foulkes estimate   =    -873.66953425 Ry
     estimated scf accuracy    <      98.92847718 Ry

     iteration #  5     ecut=    80.00 Ry     beta= 0.40
     Davidson diagonalization with overlap
     ethr =  1.00E-02,  avg # of iterations =  1.0

     negative rho (up, down):  1.121E+00 0.000E+00

     total cpu time spent up to now is       51.9 secs

     total energy              =    -901.28867638 Ry
     Harris-Foulkes estimate   =    -871.79146778 Ry
     estimated scf accuracy    <      95.92585233 Ry

     iteration #  6     ecut=    80.00 Ry     beta= 0.40
     Davidson diagonalization with overlap
     ethr =  1.00E-02,  avg # of iterations =  2.0

     negative rho (up, down):  1.548E+00 0.000E+00

     total cpu time spent up to now is       57.0 secs

     total energy              =    -912.80253318 Ry
     Harris-Foulkes estimate   =    -901.46152165 Ry
     estimated scf accuracy    <     129.82398763 Ry

     iteration #  7     ecut=    80.00 Ry     beta= 0.40
     Davidson diagonalization with overlap
     ethr =  1.00E-02,  avg # of iterations =  2.0

     negative rho (up, down):  4.244E-02 0.000E+00

     total cpu time spent up to now is       61.5 secs

     total energy              =    -814.20629176 Ry
     Harris-Foulkes estimate   =    -912.82740873 Ry
     estimated scf accuracy    <     142.08377130 Ry

     iteration #  8     ecut=    80.00 Ry     beta= 0.40
     Davidson diagonalization with overlap
     ethr =  1.00E-02,  avg # of iterations = 12.3

     negative rho (up, down):  6.568E-02 0.000E+00

     total cpu time spent up to now is       73.5 secs

     total energy              =    -851.74299383 Ry
     Harris-Foulkes estimate   =    -867.29755189 Ry
     estimated scf accuracy    <      20.83888438 Ry

     iteration #  9     ecut=    80.00 Ry     beta= 0.40
     Davidson diagonalization with overlap
     ethr =  1.00E-02,  avg # of iterations =  4.6

     negative rho (up, down):  5.464E-02 0.000E+00

     total cpu time spent up to now is       80.1 secs

     total energy              =    -858.14964417 Ry
     Harris-Foulkes estimate   =    -856.88373659 Ry
     estimated scf accuracy    <       6.19448778 Ry

     iteration # 10     ecut=    80.00 Ry     beta= 0.40
     Davidson diagonalization with overlap
     ethr =  1.00E-02,  avg # of iterations =  3.2

     negative rho (up, down):  3.655E+00 0.000E+00

     total cpu time spent up to now is       85.9 secs

     total energy              =   -1042.72287440 Ry
     Harris-Foulkes estimate   =    -867.24326545 Ry
     estimated scf accuracy    <      20.69744526 Ry

     iteration # 11     ecut=    80.00 Ry     beta= 0.40
     Davidson diagonalization with overlap
     ethr =  1.00E-02,  avg # of iterations =  6.3

     negative rho (up, down):  6.233E+00 0.000E+00

     total cpu time spent up to now is       95.0 secs

     total energy              =   -1093.74058945 Ry
     Harris-Foulkes estimate   =   -1047.62339558 Ry
     estimated scf accuracy    <     211.49247644 Ry

     iteration # 12     ecut=    80.00 Ry     beta= 0.40
     Davidson diagonalization with overlap
     c_bands:  1 eigenvalues not converged
     ethr =  1.00E-02,  avg # of iterations =  8.1

     negative rho (up, down):  2.409E+00 0.000E+00

     total cpu time spent up to now is      103.2 secs

     total energy              =    -986.62027835 Ry
     Harris-Foulkes estimate   =   -1102.09175552 Ry
     estimated scf accuracy    <     365.00348753 Ry

     iteration # 13     ecut=    80.00 Ry     beta= 0.40
     Davidson diagonalization with overlap
     ethr =  1.00E-02,  avg # of iterations =  2.0

     negative rho (up, down):  2.750E+00 0.000E+00

     total cpu time spent up to now is      108.1 secs

     total energy              =   -1008.55885846 Ry
     Harris-Foulkes estimate   =    -994.69990629 Ry
     estimated scf accuracy    <     160.13160940 Ry

     iteration # 14     ecut=    80.00 Ry     beta= 0.40
     Davidson diagonalization with overlap
     ethr =  1.00E-02,  avg # of iterations =  1.0

     negative rho (up, down):  5.265E-02 0.000E+00

     total cpu time spent up to now is      112.2 secs

     total energy              =    -859.21319405 Ry
     Harris-Foulkes estimate   =   -1008.56488471 Ry
     estimated scf accuracy    <     173.98047580 Ry

     iteration # 15     ecut=    80.00 Ry     beta= 0.40
     Davidson diagonalization with overlap
     ethr =  1.00E-02,  avg # of iterations = 10.8

     negative rho (up, down):  7.405E-01 0.000E+00

     total cpu time spent up to now is      123.0 secs

     total energy              =    -852.50417308 Ry
     Harris-Foulkes estimate   =    -863.13341170 Ry
     estimated scf accuracy    <      15.33692143 Ry

     iteration # 16     ecut=    80.00 Ry     beta= 0.40
     Davidson diagonalization with overlap
     ethr =  1.00E-02,  avg # of iterations =  8.0

     negative rho (up, down):  2.534E-02 0.000E+00

     total cpu time spent up to now is      133.4 secs

     total energy              =    -855.78647317 Ry
     Harris-Foulkes estimate   =    -878.55368849 Ry
     estimated scf accuracy    <      87.99641299 Ry

     iteration # 17     ecut=    80.00 Ry     beta= 0.40
     Davidson diagonalization with overlap
     ethr =  1.00E-02,  avg # of iterations =  2.0

     negative rho (up, down):  3.746E-01 0.000E+00

     total cpu time spent up to now is      137.9 secs

     total energy              =    -864.44149508 Ry
     Harris-Foulkes estimate   =    -858.19101673 Ry
     estimated scf accuracy    <       8.50140788 Ry

     iteration # 18     ecut=    80.00 Ry     beta= 0.40
     Davidson diagonalization with overlap
     ethr =  1.00E-02,  avg # of iterations =  2.5

     negative rho (up, down):  2.161E-01 0.000E+00

     total cpu time spent up to now is      143.1 secs

     total energy              =    -796.37291541 Ry
     Harris-Foulkes estimate   =    -881.48100257 Ry
     estimated scf accuracy    <      99.62726722 Ry

     iteration # 19     ecut=    80.00 Ry     beta= 0.40
     Davidson diagonalization with overlap
     ethr =  1.00E-02,  avg # of iterations = 10.7

     negative rho (up, down):  1.333E-01 0.000E+00

     total cpu time spent up to now is      156.1 secs

     total energy              =    -870.36680769 Ry
     Harris-Foulkes estimate   =    -899.88803614 Ry
     estimated scf accuracy    <      56.51124783 Ry

     iteration # 20     ecut=    80.00 Ry     beta= 0.40
     Davidson diagonalization with overlap
     ethr =  1.00E-02,  avg # of iterations =  2.1

     negative rho (up, down):  8.139E-02 0.000E+00

     total cpu time spent up to now is      160.6 secs

     total energy              =    -855.95095520 Ry
     Harris-Foulkes estimate   =    -870.43748050 Ry
     estimated scf accuracy    <      24.66971847 Ry

     iteration # 21     ecut=    80.00 Ry     beta= 0.40
     Davidson diagonalization with overlap
     ethr =  1.00E-02,  avg # of iterations =  2.0

     negative rho (up, down):  5.051E-02 0.000E+00

     total cpu time spent up to now is      165.2 secs

     total energy              =    -852.04241607 Ry
     Harris-Foulkes estimate   =    -856.89803103 Ry
     estimated scf accuracy    <       9.31211743 Ry

     iteration # 22     ecut=    80.00 Ry     beta= 0.40
     Davidson diagonalization with overlap
     ethr =  1.00E-02,  avg # of iterations =  2.5

     negative rho (up, down):  3.819E-02 0.000E+00

     total cpu time spent up to now is      170.1 secs

     total energy              =    -853.79621792 Ry
     Harris-Foulkes estimate   =    -853.45368981 Ry
     estimated scf accuracy    <       4.08008316 Ry

     iteration # 23     ecut=    80.00 Ry     beta= 0.40
     Davidson diagonalization with overlap
     ethr =  1.00E-02,  avg # of iterations =  4.6

     negative rho (up, down):  4.323E-02 0.000E+00

     total cpu time spent up to now is      176.4 secs

     total energy              =    -855.41953921 Ry
     Harris-Foulkes estimate   =    -855.77465570 Ry
     estimated scf accuracy    <       5.95517971 Ry

     iteration # 24     ecut=    80.00 Ry     beta= 0.40
     Davidson diagonalization with overlap
     ethr =  1.00E-02,  avg # of iterations =  4.6

     negative rho (up, down):  4.759E-02 0.000E+00

     total cpu time spent up to now is      182.6 secs

     total energy              =    -855.89938339 Ry
     Harris-Foulkes estimate   =    -856.09890210 Ry
     estimated scf accuracy    <       5.14939757 Ry

     iteration # 25     ecut=    80.00 Ry     beta= 0.40
     Davidson diagonalization with overlap
     ethr =  1.00E-02,  avg # of iterations =  1.6

     negative rho (up, down):  6.802E-02 0.000E+00

     total cpu time spent up to now is      187.0 secs

     total energy              =    -856.35973656 Ry
     Harris-Foulkes estimate   =    -855.94250078 Ry
     estimated scf accuracy    <       4.95256978 Ry

     iteration # 26     ecut=    80.00 Ry     beta= 0.40
     Davidson diagonalization with overlap
     ethr =  1.00E-02,  avg # of iterations =  2.2

     negative rho (up, down):  1.157E-01 0.000E+00

     total cpu time spent up to now is      191.9 secs

     total energy              =    -860.39281314 Ry
     Harris-Foulkes estimate   =    -856.38439018 Ry
     estimated scf accuracy    <       5.51012593 Ry

     iteration # 27     ecut=    80.00 Ry     beta= 0.40
     Davidson diagonalization with overlap
     ethr =  1.00E-02,  avg # of iterations =  4.6

     negative rho (up, down):  1.123E-01 0.000E+00

     total cpu time spent up to now is      198.4 secs

     total energy              =    -875.05168992 Ry
     Harris-Foulkes estimate   =    -874.52755733 Ry
     estimated scf accuracy    <      93.30771668 Ry

     iteration # 28     ecut=    80.00 Ry     beta= 0.40
     Davidson diagonalization with overlap
     ethr =  1.00E-02,  avg # of iterations =  1.4

     negative rho (up, down):  1.158E-01 0.000E+00

     total cpu time spent up to now is      202.8 secs

     total energy              =    -844.46353161 Ry
     Harris-Foulkes estimate   =    -875.43349490 Ry
     estimated scf accuracy    <      98.26928640 Ry

     iteration # 29     ecut=    80.00 Ry     beta= 0.40
     Davidson diagonalization with overlap
     ethr =  1.00E-02,  avg # of iterations =  3.0

     negative rho (up, down):  1.852E-01 0.000E+00

     total cpu time spent up to now is      208.0 secs

     total energy              =    -855.19221267 Ry
     Harris-Foulkes estimate   =    -855.32810236 Ry
     estimated scf accuracy    <       4.38340019 Ry

     iteration # 30     ecut=    80.00 Ry     beta= 0.40
     Davidson diagonalization with overlap
     ethr =  1.00E-02,  avg # of iterations =  1.0

     negative rho (up, down):  1.271E-01 0.000E+00

     total cpu time spent up to now is      212.3 secs

     total energy              =    -855.20821095 Ry
     Harris-Foulkes estimate   =    -855.20727492 Ry
     estimated scf accuracy    <       4.48269740 Ry

     iteration # 31     ecut=    80.00 Ry     beta= 0.40
     Davidson diagonalization with overlap
     ethr =  1.00E-02,  avg # of iterations =  1.0

     negative rho (up, down):  1.134E-01 0.000E+00

     total cpu time spent up to now is      216.5 secs

     total energy              =    -866.35055659 Ry
     Harris-Foulkes estimate   =    -857.76988467 Ry
     estimated scf accuracy    <       9.67118908 Ry

     iteration # 32     ecut=    80.00 Ry     beta= 0.40
     Davidson diagonalization with overlap
     ethr =  1.00E-02,  avg # of iterations =  8.3

     negative rho (up, down):  1.908E-01 0.000E+00

     total cpu time spent up to now is      224.5 secs

     total energy              =    -876.72058344 Ry
     Harris-Foulkes estimate   =    -866.37195628 Ry
     estimated scf accuracy    <      18.93977921 Ry

     iteration # 33     ecut=    80.00 Ry     beta= 0.40
     Davidson diagonalization with overlap
     ethr =  1.00E-02,  avg # of iterations =  6.2

     negative rho (up, down):  1.917E-01 0.000E+00

     total cpu time spent up to now is      232.2 secs

     total energy              =    -866.61488557 Ry
     Harris-Foulkes estimate   =    -877.32584628 Ry
     estimated scf accuracy    <      31.33156807 Ry

     iteration # 34     ecut=    80.00 Ry     beta= 0.40
     Davidson diagonalization with overlap
     ethr =  1.00E-02,  avg # of iterations =  1.5

     negative rho (up, down):  9.335E-02 0.000E+00

     total cpu time spent up to now is      236.6 secs

     total energy              =    -864.20021770 Ry
     Harris-Foulkes estimate   =    -866.63289449 Ry
     estimated scf accuracy    <      19.24128763 Ry

     iteration # 35     ecut=    80.00 Ry     beta= 0.40
     Davidson diagonalization with overlap
     ethr =  1.00E-02,  avg # of iterations =  1.0

     negative rho (up, down):  8.726E-02 0.000E+00

     total cpu time spent up to now is      240.9 secs

     total energy              =    -855.96508574 Ry
     Harris-Foulkes estimate   =    -864.32583011 Ry
     estimated scf accuracy    <      17.36862765 Ry

     iteration # 36     ecut=    80.00 Ry     beta= 0.40
     Davidson diagonalization with overlap
     ethr =  1.00E-02,  avg # of iterations =  1.5

     negative rho (up, down):  1.173E-01 0.000E+00

     total cpu time spent up to now is      245.2 secs

     total energy              =    -867.44643042 Ry
     Harris-Foulkes estimate   =    -856.52499847 Ry
     estimated scf accuracy    <       8.45292836 Ry

     iteration # 37     ecut=    80.00 Ry     beta= 0.40
     Davidson diagonalization with overlap
     ethr =  1.00E-02,  avg # of iterations =  1.9

     negative rho (up, down):  4.496E+00 0.000E+00

     total cpu time spent up to now is      249.7 secs

     total energy              =    -871.85214981 Ry
     Harris-Foulkes estimate   =    -867.58787789 Ry
     estimated scf accuracy    <      21.43274017 Ry

     iteration # 38     ecut=    80.00 Ry     beta= 0.40
     Davidson diagonalization with overlap

 %%%%%%%%%%%%%%%%%%%%%%%%%%%%%%%%%%%%%%%%%%%%%%%%%%%%%%%%%%%%%%%%%%%%%%%%%%%%%%
     Error in routine cdiaghg (69):
     S matrix not positive definite
 %%%%%%%%%%%%%%%%%%%%%%%%%%%%%%%%%%%%%%%%%%%%%%%%%%%%%%%%%%%%%%%%%%%%%%%%%%%%%%

     stopping ...
--------------------------------------------------------------------------
MPI_ABORT was invoked on rank 0 in communicator MPI_COMM_WORLD 
with errorcode 1.

NOTE: invoking MPI_ABORT causes Open MPI to kill all MPI processes.
You may or may not see output from other processes, depending on
exactly when Open MPI kills them.
--------------------------------------------------------------------------
