
     Program PWSCF v.6.3MaX starts on 24Oct2018 at 13:19:41 

     This program is part of the open-source Quantum ESPRESSO suite
     for quantum simulation of materials; please cite
         "P. Giannozzi et al., J. Phys.:Condens. Matter 21 395502 (2009);
         "P. Giannozzi et al., J. Phys.:Condens. Matter 29 465901 (2017);
          URL http://www.quantum-espresso.org", 
     in publications or presentations arising from this work. More details at
     http://www.quantum-espresso.org/quote

     Parallel version (MPI), running on     8 processors

     MPI processes distributed on     1 nodes
     R & G space division:  proc/nbgrp/npool/nimage =       8
     Waiting for input...
     Reading input from standard input
Warning: card &CELL ignored
Warning: card                CELL_DYNAMICS = 'BFGS' , ignored
Warning: card / ignored

     Current dimensions of program PWSCF are:
     Max number of different atomic species (ntypx) = 10
     Max number of k-points (npk) =  40000
     Max angular momentum in pseudopotentials (lmaxx) =  3
     Message from routine iosys:
     minimal I/O required, wf_collect reset to FALSE
               file N.pbe-n-kjpaw_psl.1.0.0.UPF: wavefunction(s)  2S renormalized
               file Na.pbe-spnl-kjpaw_psl.1.0.0.UPF: wavefunction(s)  2P renormalized

     Subspace diagonalization in iterative solution of the eigenvalue problem:
     a serial algorithm will be used


     Parallelization info
     --------------------
     sticks:   dense  smooth     PW     G-vecs:    dense   smooth      PW
     Min          31      31     11                  340      340      76
     Max          32      32     12                  344      344      77
     Sum         253     253     91                 2741     2741     609



     bravais-lattice index     =            2
     lattice parameter (alat)  =       4.9000  a.u.
     unit-cell volume          =      29.4123 (a.u.)^3
     number of atoms/cell      =            3
     number of atomic types    =            3
     number of electrons       =         9.00
     number of Kohn-Sham states=            9
     kinetic-energy cutoff     =      80.0000  Ry
     charge density cutoff     =     320.0000  Ry
     convergence threshold     =      1.0E-09
     mixing beta               =       0.4000
     number of iterations used =            8  plain     mixing
     Exchange-correlation      = SLA PW PBX PBC ( 1  4  3  4 0 0)

     celldm(1)=   4.900000  celldm(2)=   0.000000  celldm(3)=   0.000000
     celldm(4)=   0.000000  celldm(5)=   0.000000  celldm(6)=   0.000000

     crystal axes: (cart. coord. in units of alat)
               a(1) = (  -0.500000   0.000000   0.500000 )  
               a(2) = (   0.000000   0.500000   0.500000 )  
               a(3) = (  -0.500000   0.500000   0.000000 )  

     reciprocal axes: (cart. coord. in units 2 pi/alat)
               b(1) = ( -1.000000 -1.000000  1.000000 )  
               b(2) = (  1.000000  1.000000  1.000000 )  
               b(3) = ( -1.000000  1.000000 -1.000000 )  


     PseudoPot. # 1 for N  read from file:
     ./ps/N.pbe-n-kjpaw_psl.1.0.0.UPF
     MD5 check sum: 200139db3989ad6e773ddd42f12fc3a8
     Pseudo is Projector augmented-wave + core cor, Zval =  5.0
     Generated using "atomic" code by A. Dal Corso v.6.3
     Shape of augmentation charge: PSQ
     Using radial grid of 1085 points,  4 beta functions with: 
                l(1) =   0
                l(2) =   0
                l(3) =   1
                l(4) =   1
     Q(r) pseudized with 0 coefficients 


     PseudoPot. # 2 for Na read from file:
     ./ps/Na.pbe-spnl-kjpaw_psl.1.0.0.UPF
     MD5 check sum: 09e782c158f17eb2240230c4112357ee
     Pseudo is Projector augmented-wave + core cor, Zval =  9.0
     Generated using "atomic" code by A. Dal Corso v.6.3
     Shape of augmentation charge: PSQ
     Using radial grid of 1121 points,  4 beta functions with: 
                l(1) =   0
                l(2) =   0
                l(3) =   1
                l(4) =   1
     Q(r) pseudized with 0 coefficients 


     PseudoPot. # 3 for Cs read from file:
     ./ps/Cs.pbe-spnl-kjpaw_psl.1.0.0.UPF
     MD5 check sum: f98336d4a4407e24c1ab1e3bc36275e8
     Pseudo is Projector augmented-wave + core cor, Zval = -5.0
     Generated using "atomic" code by A. Dal Corso v.6.2.2
     Shape of augmentation charge: PSQ
     Using radial grid of 1251 points,  6 beta functions with: 
                l(1) =   0
                l(2) =   0
                l(3) =   1
                l(4) =   1
                l(5) =   2
                l(6) =   2
     Q(r) pseudized with 0 coefficients 


     atomic species   valence    mass     pseudopotential
        N              5.00    14.00670     N ( 1.00)
        Na             9.00    22.98977     Na( 1.00)
        Cs            -5.00   132.90545     Cs( 1.00)

     24 Sym. Ops. (no inversion) found



   Cartesian axes

     site n.     atom                  positions (alat units)
         1           N   tau(   1) = (   0.0000000   0.0000000   0.0000000  )
         2           Na  tau(   2) = (  -0.2500000   0.2500000   0.2500000  )
         3           Cs  tau(   3) = (  -0.7500000   0.7500000   0.7500000  )

     number of k points=   110  Methfessel-Paxton smearing, width (Ry)=  0.0200

     Number of k-points >= 100: set verbosity='high' to print them.

     Dense  grid:     2741 G-vectors     FFT dimensions: (  20,  20,  20)

     Estimated max dynamical RAM per process >       5.35 MB

     Estimated total dynamical RAM >      42.77 MB

     Initial potential from superposition of free atoms

     starting charge   22.95298, renormalised to    9.00000
     Starting wfcs are   14 randomized atomic wfcs
     Checking if some PAW data can be deallocated... 

     total cpu time spent up to now is        3.8 secs

     Self-consistent Calculation

     iteration #  1     ecut=    80.00 Ry     beta= 0.40
     Davidson diagonalization with overlap
     ethr =  1.00E-02,  avg # of iterations = 10.6

     total cpu time spent up to now is        5.8 secs

     total energy              =   -5770.10528134 Ry
     Harris-Foulkes estimate   =   -5784.33848166 Ry
     estimated scf accuracy    <      29.44548916 Ry

     iteration #  2     ecut=    80.00 Ry     beta= 0.40
     Davidson diagonalization with overlap
     ethr =  1.00E-02,  avg # of iterations =  2.1

     negative rho (up, down):  2.379E-03 0.000E+00

     total cpu time spent up to now is        6.5 secs

     total energy              =   -5767.75791934 Ry
     Harris-Foulkes estimate   =   -5771.81772903 Ry
     estimated scf accuracy    <       6.51097638 Ry

     iteration #  3     ecut=    80.00 Ry     beta= 0.40
     Davidson diagonalization with overlap
     ethr =  1.00E-02,  avg # of iterations =  2.4

     negative rho (up, down):  1.592E-02 0.000E+00

     total cpu time spent up to now is        7.3 secs

     total energy              =   -5767.96809537 Ry
     Harris-Foulkes estimate   =   -5768.23198678 Ry
     estimated scf accuracy    <       0.43676746 Ry

     iteration #  4     ecut=    80.00 Ry     beta= 0.40
     Davidson diagonalization with overlap
     ethr =  4.85E-03,  avg # of iterations =  1.0

     negative rho (up, down):  2.537E-02 0.000E+00

     total cpu time spent up to now is        7.9 secs

     total energy              =   -5767.95079176 Ry
     Harris-Foulkes estimate   =   -5767.98111033 Ry
     estimated scf accuracy    <       0.02687795 Ry

     iteration #  5     ecut=    80.00 Ry     beta= 0.40
     Davidson diagonalization with overlap
     ethr =  2.99E-04,  avg # of iterations =  3.2

     negative rho (up, down):  2.542E-02 0.000E+00

     total cpu time spent up to now is        8.8 secs

     total energy              =   -5767.95847014 Ry
     Harris-Foulkes estimate   =   -5767.95868035 Ry
     estimated scf accuracy    <       0.00089983 Ry

     iteration #  6     ecut=    80.00 Ry     beta= 0.40
     Davidson diagonalization with overlap
     ethr =  1.00E-05,  avg # of iterations =  4.3

     negative rho (up, down):  2.658E-02 0.000E+00

     total cpu time spent up to now is        9.8 secs

     total energy              =   -5767.95883984 Ry
     Harris-Foulkes estimate   =   -5767.95880338 Ry
     estimated scf accuracy    <       0.00024564 Ry

     iteration #  7     ecut=    80.00 Ry     beta= 0.40
     Davidson diagonalization with overlap
     ethr =  2.73E-06,  avg # of iterations =  2.4

     negative rho (up, down):  2.672E-02 0.000E+00

     total cpu time spent up to now is       10.6 secs

     total energy              =   -5767.95886170 Ry
     Harris-Foulkes estimate   =   -5767.95886905 Ry
     estimated scf accuracy    <       0.00001248 Ry

     iteration #  8     ecut=    80.00 Ry     beta= 0.40
     Davidson diagonalization with overlap
     ethr =  1.39E-07,  avg # of iterations =  2.9

     negative rho (up, down):  2.685E-02 0.000E+00

     total cpu time spent up to now is       11.4 secs

     total energy              =   -5767.95886713 Ry
     Harris-Foulkes estimate   =   -5767.95886710 Ry
     estimated scf accuracy    <       0.00000231 Ry

     iteration #  9     ecut=    80.00 Ry     beta= 0.40
     Davidson diagonalization with overlap
     ethr =  2.57E-08,  avg # of iterations =  1.8

     negative rho (up, down):  2.680E-02 0.000E+00

     total cpu time spent up to now is       12.1 secs

     total energy              =   -5767.95886730 Ry
     Harris-Foulkes estimate   =   -5767.95886741 Ry
     estimated scf accuracy    <       0.00000029 Ry

     iteration # 10     ecut=    80.00 Ry     beta= 0.40
     Davidson diagonalization with overlap
     ethr =  3.22E-09,  avg # of iterations =  2.3

     negative rho (up, down):  2.683E-02 0.000E+00

     total cpu time spent up to now is       12.8 secs

     total energy              =   -5767.95886744 Ry
     Harris-Foulkes estimate   =   -5767.95886744 Ry
     estimated scf accuracy    <       0.00000004 Ry

     iteration # 11     ecut=    80.00 Ry     beta= 0.40
     Davidson diagonalization with overlap
     ethr =  4.60E-10,  avg # of iterations =  2.4

     negative rho (up, down):  2.683E-02 0.000E+00

     total cpu time spent up to now is       13.6 secs

     End of self-consistent calculation

     Number of k-points >= 100: set verbosity='high' to print the bands.

     the Fermi energy is -7931.4977 ev

!    total energy              =   -5767.95886739 Ry
     Harris-Foulkes estimate   =   -5767.95886740 Ry
     estimated scf accuracy    <          6.9E-10 Ry

     total all-electron energy =    -21223.044643 Ry

     The total energy is the sum of the following terms:

     one-electron contribution =   -5256.37584628 Ry
     hartree contribution      =      12.66182008 Ry
     xc contribution           =     -30.65240585 Ry
     ewald contribution        =    -109.10579666 Ry
     one-center paw contrib.   =    -384.48645156 Ry
     smearing contrib. (-TS)   =      -0.00018712 Ry

     convergence has been achieved in  11 iterations

     negative rho (up, down):  2.683E-02 0.000E+00

     Forces acting on atoms (cartesian axes, Ry/au):

     atom    1 type  1   force =     0.00000000   -0.00000000    0.00000000
     atom    2 type  2   force =     0.00000000    0.00000000    0.00000000
     atom    3 type  3   force =    -0.00000000   -0.00000000   -0.00000000

     Total force =     0.000000     Total SCF correction =     0.000000


     Computing stress (Cartesian axis) and pressure


     negative rho (up, down):  2.683E-02 0.000E+00
          total   stress  (Ry/bohr**3)                   (kbar)     P=********
-165.64975851  -0.00000000  -0.00000000    **********     -0.00     -0.00
  -0.00000000-165.64975851   0.00000000         -0.00**********      0.00
  -0.00000000   0.00000000-165.64975851         -0.00      0.00**********


     init_run     :      0.31s CPU      0.82s WALL (       1 calls)
     electrons    :      4.39s CPU      9.73s WALL (       1 calls)
     forces       :      0.06s CPU      0.11s WALL (       1 calls)
     stress       :      0.09s CPU      0.22s WALL (       1 calls)

     Called by init_run:
     wfcinit      :      0.10s CPU      0.24s WALL (       1 calls)
     potinit      :      0.04s CPU      0.24s WALL (       1 calls)
     hinit0       :      0.17s CPU      0.32s WALL (       1 calls)

     Called by electrons:
     c_bands      :      3.42s CPU      6.41s WALL (      11 calls)
     sum_band     :      0.37s CPU      0.80s WALL (      11 calls)
     v_of_rho     :      0.01s CPU      0.03s WALL (      12 calls)
     newd         :      0.02s CPU      0.06s WALL (      12 calls)
     PAW_pot      :      0.59s CPU      2.66s WALL (      12 calls)
     mix_rho      :      0.00s CPU      0.01s WALL (      11 calls)

     Called by c_bands:
     init_us_2    :      0.08s CPU      0.10s WALL (    2750 calls)
     cegterg      :      3.26s CPU      6.11s WALL (    1210 calls)

     Called by sum_band:
     sum_band:bec :      0.01s CPU      0.02s WALL (    1210 calls)
     addusdens    :      0.02s CPU      0.02s WALL (      11 calls)

     Called by *egterg:
     h_psi        :      1.82s CPU      3.45s WALL (    5212 calls)
     s_psi        :      0.13s CPU      0.17s WALL (    5212 calls)
     g_psi        :      0.01s CPU      0.01s WALL (    3892 calls)
     cdiaghg      :      0.77s CPU      1.44s WALL (    5102 calls)

     Called by h_psi:
     h_psi:pot    :      1.81s CPU      3.44s WALL (    5212 calls)
     h_psi:calbec :      0.23s CPU      0.51s WALL (    5212 calls)
     vloc_psi     :      1.43s CPU      2.74s WALL (    5212 calls)
     add_vuspsi   :      0.14s CPU      0.17s WALL (    5212 calls)

     General routines
     calbec       :      0.35s CPU      0.80s WALL (    6972 calls)
     fft          :      0.01s CPU      0.06s WALL (     158 calls)
     ffts         :      0.00s CPU      0.00s WALL (      11 calls)
     fftw         :      1.52s CPU      3.09s WALL (   77320 calls)

     Parallel routines
     fft_scatt_xy :      0.14s CPU      0.18s WALL (   77489 calls)
     fft_scatt_yz :      0.93s CPU      2.39s WALL (   77489 calls)

     PWSCF        :     6.62s CPU        13.91s WALL


   This run was terminated on:  13:19:54  24Oct2018            

=------------------------------------------------------------------------------=
   JOB DONE.
=------------------------------------------------------------------------------=
