
     Program PWSCF v.6.3MaX starts on 23Oct2018 at 13:20:54 

     This program is part of the open-source Quantum ESPRESSO suite
     for quantum simulation of materials; please cite
         "P. Giannozzi et al., J. Phys.:Condens. Matter 21 395502 (2009);
         "P. Giannozzi et al., J. Phys.:Condens. Matter 29 465901 (2017);
          URL http://www.quantum-espresso.org", 
     in publications or presentations arising from this work. More details at
     http://www.quantum-espresso.org/quote

     Parallel version (MPI), running on     8 processors

     MPI processes distributed on     1 nodes
     R & G space division:  proc/nbgrp/npool/nimage =       8
     Waiting for input...
     Reading input from standard input
Warning: card &CELL ignored
Warning: card                CELL_DYNAMICS = 'BFGS' , ignored
Warning: card / ignored

     Current dimensions of program PWSCF are:
     Max number of different atomic species (ntypx) = 10
     Max number of k-points (npk) =  40000
     Max angular momentum in pseudopotentials (lmaxx) =  3
               file N.pbe-n-kjpaw_psl.1.0.0.UPF: wavefunction(s)  2S renormalized
               file Na.pbe-spnl-kjpaw_psl.1.0.0.UPF: wavefunction(s)  2P renormalized

     Subspace diagonalization in iterative solution of the eigenvalue problem:
     a serial algorithm will be used


     Parallelization info
     --------------------
     sticks:   dense  smooth     PW     G-vecs:    dense   smooth      PW
     Min         233     233     68                 6608     6608    1045
     Max         234     234     69                 6610     6610    1046
     Sum        1867    1867    547                52873    52873    8363



     bravais-lattice index     =            2
     lattice parameter (alat)  =      14.6200  a.u.
     unit-cell volume          =     781.2358 (a.u.)^3
     number of atoms/cell      =            3
     number of atomic types    =            3
     number of electrons       =         9.00
     number of Kohn-Sham states=            9
     kinetic-energy cutoff     =      63.0000  Ry
     charge density cutoff     =     252.0000  Ry
     convergence threshold     =      1.0E-09
     mixing beta               =       0.4000
     number of iterations used =            8  plain     mixing
     Exchange-correlation      = SLA PW PBX PBC ( 1  4  3  4 0 0)

     celldm(1)=  14.620000  celldm(2)=   0.000000  celldm(3)=   0.000000
     celldm(4)=   0.000000  celldm(5)=   0.000000  celldm(6)=   0.000000

     crystal axes: (cart. coord. in units of alat)
               a(1) = (  -0.500000   0.000000   0.500000 )  
               a(2) = (   0.000000   0.500000   0.500000 )  
               a(3) = (  -0.500000   0.500000   0.000000 )  

     reciprocal axes: (cart. coord. in units 2 pi/alat)
               b(1) = ( -1.000000 -1.000000  1.000000 )  
               b(2) = (  1.000000  1.000000  1.000000 )  
               b(3) = ( -1.000000  1.000000 -1.000000 )  


     PseudoPot. # 1 for N  read from file:
     ./../ps/N.pbe-n-kjpaw_psl.1.0.0.UPF
     MD5 check sum: 200139db3989ad6e773ddd42f12fc3a8
     Pseudo is Projector augmented-wave + core cor, Zval =  5.0
     Generated using "atomic" code by A. Dal Corso v.6.3
     Shape of augmentation charge: PSQ
     Using radial grid of 1085 points,  4 beta functions with: 
                l(1) =   0
                l(2) =   0
                l(3) =   1
                l(4) =   1
     Q(r) pseudized with 0 coefficients 


     PseudoPot. # 2 for Na read from file:
     ./../ps/Na.pbe-spnl-kjpaw_psl.1.0.0.UPF
     MD5 check sum: 09e782c158f17eb2240230c4112357ee
     Pseudo is Projector augmented-wave + core cor, Zval =  9.0
     Generated using "atomic" code by A. Dal Corso v.6.3
     Shape of augmentation charge: PSQ
     Using radial grid of 1121 points,  4 beta functions with: 
                l(1) =   0
                l(2) =   0
                l(3) =   1
                l(4) =   1
     Q(r) pseudized with 0 coefficients 


     PseudoPot. # 3 for Cs read from file:
     ./../ps/Cs.pbe-spnl-kjpaw_psl.1.0.0.UPF
     MD5 check sum: f98336d4a4407e24c1ab1e3bc36275e8
     Pseudo is Projector augmented-wave + core cor, Zval = -5.0
     Generated using "atomic" code by A. Dal Corso v.6.2.2
     Shape of augmentation charge: PSQ
     Using radial grid of 1251 points,  6 beta functions with: 
                l(1) =   0
                l(2) =   0
                l(3) =   1
                l(4) =   1
                l(5) =   2
                l(6) =   2
     Q(r) pseudized with 0 coefficients 


     atomic species   valence    mass     pseudopotential
        N              5.00    14.00670     N ( 1.00)
        Na             9.00    22.98977     Na( 1.00)
        Cs            -5.00   132.90545     Cs( 1.00)

     24 Sym. Ops. (no inversion) found



   Cartesian axes

     site n.     atom                  positions (alat units)
         1           N   tau(   1) = (   0.0000000   0.0000000   0.0000000  )
         2           Na  tau(   2) = (  -0.2500000   0.2500000   0.2500000  )
         3           Cs  tau(   3) = (  -0.7500000   0.7500000   0.7500000  )

     number of k points=   110  Methfessel-Paxton smearing, width (Ry)=  0.0200

     Number of k-points >= 100: set verbosity='high' to print them.

     Dense  grid:    52873 G-vectors     FFT dimensions: (  54,  54,  54)

     Estimated max dynamical RAM per process >      46.70 MB

     Estimated total dynamical RAM >     373.60 MB

     Check: negative/imaginary core charge=   -0.000004    0.000000

     Initial potential from superposition of free atoms

     starting charge   22.95298, renormalised to    9.00000
     Starting wfcs are   14 randomized atomic wfcs
     Checking if some PAW data can be deallocated... 

     total cpu time spent up to now is        4.6 secs

     Self-consistent Calculation

     iteration #  1     ecut=    63.00 Ry     beta= 0.40
     Davidson diagonalization with overlap
     ethr =  1.00E-02,  avg # of iterations = 12.3

     total cpu time spent up to now is       15.2 secs

     total energy              =    -717.47740771 Ry
     Harris-Foulkes estimate   =    -745.45199659 Ry
     estimated scf accuracy    <      48.58459560 Ry

     iteration #  2     ecut=    63.00 Ry     beta= 0.40
     Davidson diagonalization with overlap
     ethr =  1.00E-02,  avg # of iterations =  3.0

     negative rho (up, down):  2.922E-07 0.000E+00

     total cpu time spent up to now is       20.9 secs

     total energy              =    -709.72337025 Ry
     Harris-Foulkes estimate   =    -719.40382566 Ry
     estimated scf accuracy    <      11.20142747 Ry

     iteration #  3     ecut=    63.00 Ry     beta= 0.40
     Davidson diagonalization with overlap
     ethr =  1.00E-02,  avg # of iterations =  9.8

     negative rho (up, down):  9.307E-02 0.000E+00

     total cpu time spent up to now is       31.0 secs

     total energy              =    -712.57605901 Ry
     Harris-Foulkes estimate   =    -713.18546866 Ry
     estimated scf accuracy    <       1.10833305 Ry

     iteration #  4     ecut=    63.00 Ry     beta= 0.40
     Davidson diagonalization with overlap
     ethr =  1.00E-02,  avg # of iterations =  3.1

     negative rho (up, down):  1.829E-01 0.000E+00

     total cpu time spent up to now is       35.9 secs

     total energy              =    -712.72159021 Ry
     Harris-Foulkes estimate   =    -712.91624249 Ry
     estimated scf accuracy    <       0.28472757 Ry

     iteration #  5     ecut=    63.00 Ry     beta= 0.40
     Davidson diagonalization with overlap
     ethr =  3.16E-03,  avg # of iterations =  6.0

     negative rho (up, down):  2.246E-01 0.000E+00

     total cpu time spent up to now is       42.3 secs

     total energy              =    -712.76623177 Ry
     Harris-Foulkes estimate   =    -712.81738808 Ry
     estimated scf accuracy    <       0.09054083 Ry

     iteration #  6     ecut=    63.00 Ry     beta= 0.40
     Davidson diagonalization with overlap
     ethr =  1.01E-03,  avg # of iterations =  2.5

     negative rho (up, down):  2.232E-01 0.000E+00

     total cpu time spent up to now is       46.9 secs

     total energy              =    -712.78365886 Ry
     Harris-Foulkes estimate   =    -712.78366792 Ry
     estimated scf accuracy    <       0.00004156 Ry

     iteration #  7     ecut=    63.00 Ry     beta= 0.40
     Davidson diagonalization with overlap
     ethr =  4.62E-07,  avg # of iterations = 13.1

     negative rho (up, down):  2.227E-01 0.000E+00

     total cpu time spent up to now is       58.6 secs

     total energy              =    -712.78482742 Ry
     Harris-Foulkes estimate   =    -712.78485381 Ry
     estimated scf accuracy    <       0.00002357 Ry

     iteration #  8     ecut=    63.00 Ry     beta= 0.40
     Davidson diagonalization with overlap
     ethr =  2.62E-07,  avg # of iterations =  3.3

     negative rho (up, down):  2.236E-01 0.000E+00

     total cpu time spent up to now is       63.6 secs

     total energy              =    -712.78484036 Ry
     Harris-Foulkes estimate   =    -712.78484377 Ry
     estimated scf accuracy    <       0.00000744 Ry

     iteration #  9     ecut=    63.00 Ry     beta= 0.40
     Davidson diagonalization with overlap
     ethr =  8.27E-08,  avg # of iterations =  2.0

     negative rho (up, down):  2.235E-01 0.000E+00

     total cpu time spent up to now is       67.9 secs

     total energy              =    -712.78484000 Ry
     Harris-Foulkes estimate   =    -712.78484228 Ry
     estimated scf accuracy    <       0.00000152 Ry

     iteration # 10     ecut=    63.00 Ry     beta= 0.40
     Davidson diagonalization with overlap
     ethr =  1.68E-08,  avg # of iterations =  2.1

     negative rho (up, down):  2.235E-01 0.000E+00

     total cpu time spent up to now is       72.3 secs

     total energy              =    -712.78483954 Ry
     Harris-Foulkes estimate   =    -712.78484018 Ry
     estimated scf accuracy    <       0.00000035 Ry

     iteration # 11     ecut=    63.00 Ry     beta= 0.40
     Davidson diagonalization with overlap
     ethr =  3.91E-09,  avg # of iterations =  2.5

     negative rho (up, down):  2.234E-01 0.000E+00

     total cpu time spent up to now is       76.9 secs

     total energy              =    -712.78483962 Ry
     Harris-Foulkes estimate   =    -712.78483966 Ry
     estimated scf accuracy    <       0.00000002 Ry

     iteration # 12     ecut=    63.00 Ry     beta= 0.40
     Davidson diagonalization with overlap
     ethr =  2.61E-10,  avg # of iterations =  3.0

     negative rho (up, down):  2.234E-01 0.000E+00

     total cpu time spent up to now is       82.2 secs

     End of self-consistent calculation

     Number of k-points >= 100: set verbosity='high' to print the bands.

     the Fermi energy is  -323.9161 ev

!    total energy              =    -712.78483963 Ry
     Harris-Foulkes estimate   =    -712.78483963 Ry
     estimated scf accuracy    <          6.7E-10 Ry

     total all-electron energy =    -16167.870615 Ry

     The total energy is the sum of the following terms:

     one-electron contribution =    -316.86815845 Ry
     hartree contribution      =      54.82945628 Ry
     xc contribution           =     -28.96000062 Ry
     ewald contribution        =     -36.56760677 Ry
     one-center paw contrib.   =    -385.20988519 Ry
     smearing contrib. (-TS)   =      -0.00864487 Ry

     convergence has been achieved in  12 iterations

     negative rho (up, down):  2.234E-01 0.000E+00

     Forces acting on atoms (cartesian axes, Ry/au):

     atom    1 type  1   force =     0.00000000    0.00000000    0.00000000
     atom    2 type  2   force =     0.00000000    0.00000000    0.00000000
     atom    3 type  3   force =     0.00000000    0.00000000    0.00000000

     Total force =     0.000000     Total SCF correction =     0.000000


     Computing stress (Cartesian axis) and pressure


     negative rho (up, down):  2.234E-01 0.000E+00
          total   stress  (Ry/bohr**3)                   (kbar)     P=********
  -0.14349093   0.00000000   0.00000000     -21108.24      0.00      0.00
   0.00000000  -0.14349093  -0.00000000          0.00 -21108.24     -0.00
   0.00000000  -0.00000000  -0.14349093          0.00     -0.00 -21108.24


     Writing output data file NNaCs.save/

     init_run     :      2.49s CPU      2.77s WALL (       1 calls)
     electrons    :     74.26s CPU     77.63s WALL (       1 calls)
     forces       :      0.66s CPU      0.69s WALL (       1 calls)
     stress       :      1.59s CPU      1.60s WALL (       1 calls)

     Called by init_run:
     wfcinit      :      1.94s CPU      2.01s WALL (       1 calls)
     potinit      :      0.10s CPU      0.18s WALL (       1 calls)
     hinit0       :      0.35s CPU      0.45s WALL (       1 calls)

     Called by electrons:
     c_bands      :     63.47s CPU     65.62s WALL (      12 calls)
     sum_band     :      8.96s CPU      9.35s WALL (      12 calls)
     v_of_rho     :      0.25s CPU      0.30s WALL (      13 calls)
     newd         :      0.88s CPU      0.90s WALL (      13 calls)
     PAW_pot      :      0.71s CPU      1.55s WALL (      13 calls)
     mix_rho      :      0.08s CPU      0.08s WALL (      12 calls)

     Called by c_bands:
     init_us_2    :      1.93s CPU      1.99s WALL (    2970 calls)
     cegterg      :     60.84s CPU     62.89s WALL (    1320 calls)

     Called by sum_band:
     sum_band:bec :      0.04s CPU      0.04s WALL (    1320 calls)
     addusdens    :      0.73s CPU      0.74s WALL (      12 calls)

     Called by *egterg:
     h_psi        :     47.41s CPU     49.04s WALL (    8331 calls)
     s_psi        :      2.99s CPU      3.08s WALL (    8331 calls)
     g_psi        :      0.16s CPU      0.16s WALL (    6901 calls)
     cdiaghg      :      1.77s CPU      1.83s WALL (    8221 calls)

     Called by h_psi:
     h_psi:pot    :     46.83s CPU     48.44s WALL (    8331 calls)
     h_psi:calbec :      5.03s CPU      5.23s WALL (    8331 calls)
     vloc_psi     :     38.01s CPU     39.29s WALL (    8331 calls)
     add_vuspsi   :      3.73s CPU      3.86s WALL (    8331 calls)

     General routines
     calbec       :      6.35s CPU      6.61s WALL (   10201 calls)
     fft          :      0.12s CPU      0.13s WALL (     169 calls)
     ffts         :      0.01s CPU      0.01s WALL (      12 calls)
     fftw         :     35.70s CPU     37.00s WALL (   99576 calls)

     Parallel routines
     fft_scatt_xy :      4.34s CPU      4.49s WALL (   99757 calls)
     fft_scatt_yz :      6.23s CPU      6.58s WALL (   99757 calls)

     PWSCF        :  1m20.86s CPU     1m24.72s WALL


   This run was terminated on:  13:22:19  23Oct2018            

=------------------------------------------------------------------------------=
   JOB DONE.
=------------------------------------------------------------------------------=
