
     Program PWSCF v.6.3MaX starts on 23Oct2018 at 14:50:12 

     This program is part of the open-source Quantum ESPRESSO suite
     for quantum simulation of materials; please cite
         "P. Giannozzi et al., J. Phys.:Condens. Matter 21 395502 (2009);
         "P. Giannozzi et al., J. Phys.:Condens. Matter 29 465901 (2017);
          URL http://www.quantum-espresso.org", 
     in publications or presentations arising from this work. More details at
     http://www.quantum-espresso.org/quote

     Parallel version (MPI), running on     8 processors

     MPI processes distributed on     1 nodes
     R & G space division:  proc/nbgrp/npool/nimage =       8
     Waiting for input...
     Reading input from standard input
Warning: card &CELL ignored
Warning: card                CELL_DYNAMICS = 'BFGS' , ignored
Warning: card / ignored

     Current dimensions of program PWSCF are:
     Max number of different atomic species (ntypx) = 10
     Max number of k-points (npk) =  40000
     Max angular momentum in pseudopotentials (lmaxx) =  3
               file N.pbe-n-kjpaw_psl.1.0.0.UPF: wavefunction(s)  2S renormalized
               file Na.pbe-spnl-kjpaw_psl.1.0.0.UPF: wavefunction(s)  2P renormalized

     Subspace diagonalization in iterative solution of the eigenvalue problem:
     a serial algorithm will be used


     Parallelization info
     --------------------
     sticks:   dense  smooth     PW     G-vecs:    dense   smooth      PW
     Min         243     243     71                 7112     7112    1109
     Max         244     244     73                 7116     7116    1110
     Sum        1945    1945    571                56905    56905    8873



     bravais-lattice index     =            2
     lattice parameter (alat)  =      13.3000  a.u.
     unit-cell volume          =     588.1593 (a.u.)^3
     number of atoms/cell      =            3
     number of atomic types    =            3
     number of electrons       =         9.00
     number of Kohn-Sham states=            9
     kinetic-energy cutoff     =      80.0000  Ry
     charge density cutoff     =     320.0000  Ry
     convergence threshold     =      1.0E-09
     mixing beta               =       0.4000
     number of iterations used =            8  plain     mixing
     Exchange-correlation      = SLA PW PBX PBC ( 1  4  3  4 0 0)

     celldm(1)=  13.300000  celldm(2)=   0.000000  celldm(3)=   0.000000
     celldm(4)=   0.000000  celldm(5)=   0.000000  celldm(6)=   0.000000

     crystal axes: (cart. coord. in units of alat)
               a(1) = (  -0.500000   0.000000   0.500000 )  
               a(2) = (   0.000000   0.500000   0.500000 )  
               a(3) = (  -0.500000   0.500000   0.000000 )  

     reciprocal axes: (cart. coord. in units 2 pi/alat)
               b(1) = ( -1.000000 -1.000000  1.000000 )  
               b(2) = (  1.000000  1.000000  1.000000 )  
               b(3) = ( -1.000000  1.000000 -1.000000 )  


     PseudoPot. # 1 for N  read from file:
     ./ps/N.pbe-n-kjpaw_psl.1.0.0.UPF
     MD5 check sum: 200139db3989ad6e773ddd42f12fc3a8
     Pseudo is Projector augmented-wave + core cor, Zval =  5.0
     Generated using "atomic" code by A. Dal Corso v.6.3
     Shape of augmentation charge: PSQ
     Using radial grid of 1085 points,  4 beta functions with: 
                l(1) =   0
                l(2) =   0
                l(3) =   1
                l(4) =   1
     Q(r) pseudized with 0 coefficients 


     PseudoPot. # 2 for Na read from file:
     ./ps/Na.pbe-spnl-kjpaw_psl.1.0.0.UPF
     MD5 check sum: 09e782c158f17eb2240230c4112357ee
     Pseudo is Projector augmented-wave + core cor, Zval =  9.0
     Generated using "atomic" code by A. Dal Corso v.6.3
     Shape of augmentation charge: PSQ
     Using radial grid of 1121 points,  4 beta functions with: 
                l(1) =   0
                l(2) =   0
                l(3) =   1
                l(4) =   1
     Q(r) pseudized with 0 coefficients 


     PseudoPot. # 3 for Cs read from file:
     ./ps/Cs.pbe-spnl-kjpaw_psl.1.0.0.UPF
     MD5 check sum: f98336d4a4407e24c1ab1e3bc36275e8
     Pseudo is Projector augmented-wave + core cor, Zval = -5.0
     Generated using "atomic" code by A. Dal Corso v.6.2.2
     Shape of augmentation charge: PSQ
     Using radial grid of 1251 points,  6 beta functions with: 
                l(1) =   0
                l(2) =   0
                l(3) =   1
                l(4) =   1
                l(5) =   2
                l(6) =   2
     Q(r) pseudized with 0 coefficients 


     atomic species   valence    mass     pseudopotential
        N              5.00    14.00670     N ( 1.00)
        Na             9.00    22.98977     Na( 1.00)
        Cs            -5.00   132.90545     Cs( 1.00)

     24 Sym. Ops. (no inversion) found



   Cartesian axes

     site n.     atom                  positions (alat units)
         1           N   tau(   1) = (   0.0000000   0.0000000   0.0000000  )
         2           Na  tau(   2) = (  -0.2500000   0.2500000   0.2500000  )
         3           Cs  tau(   3) = (  -0.7500000   0.7500000   0.7500000  )

     number of k points=   110  Methfessel-Paxton smearing, width (Ry)=  0.0200

     Number of k-points >= 100: set verbosity='high' to print them.

     Dense  grid:    56905 G-vectors     FFT dimensions: (  54,  54,  54)

     Estimated max dynamical RAM per process >      49.72 MB

     Estimated total dynamical RAM >     397.74 MB

     Check: negative/imaginary core charge=   -0.000002    0.000000

     Initial potential from superposition of free atoms

     starting charge   22.95298, renormalised to    9.00000
     Starting wfcs are   14 randomized atomic wfcs
     Checking if some PAW data can be deallocated... 

     total cpu time spent up to now is        5.3 secs

     Self-consistent Calculation

     iteration #  1     ecut=    80.00 Ry     beta= 0.40
     Davidson diagonalization with overlap
     ethr =  1.00E-02,  avg # of iterations =  7.0

     negative rho (up, down):  1.580E+00 0.000E+00

     total cpu time spent up to now is       16.3 secs

     total energy              =    -739.66085451 Ry
     Harris-Foulkes estimate   =    -820.76720209 Ry
     estimated scf accuracy    <     161.16574373 Ry

     iteration #  2     ecut=    80.00 Ry     beta= 0.40
     Davidson diagonalization with overlap
     ethr =  1.00E-02,  avg # of iterations =  4.0

     negative rho (up, down):  1.119E+00 0.000E+00

     total cpu time spent up to now is       22.8 secs

     total energy              =    -775.48308248 Ry
     Harris-Foulkes estimate   =    -803.46587122 Ry
     estimated scf accuracy    <      75.89179220 Ry

     iteration #  3     ecut=    80.00 Ry     beta= 0.40
     Davidson diagonalization with overlap
     ethr =  1.00E-02,  avg # of iterations =  3.0

     negative rho (up, down):  3.656E-01 0.000E+00

     total cpu time spent up to now is       29.1 secs

     total energy              =    -763.83178451 Ry
     Harris-Foulkes estimate   =    -776.84735698 Ry
     estimated scf accuracy    <      19.25504726 Ry

     iteration #  4     ecut=    80.00 Ry     beta= 0.40
     Davidson diagonalization with overlap
     ethr =  1.00E-02,  avg # of iterations =  6.0

     negative rho (up, down):  9.058E-01 0.000E+00

     total cpu time spent up to now is       37.5 secs

     total energy              =    -774.94857567 Ry
     Harris-Foulkes estimate   =    -798.22217343 Ry
     estimated scf accuracy    <     106.09930493 Ry

     iteration #  5     ecut=    80.00 Ry     beta= 0.40
     Davidson diagonalization with overlap
     ethr =  1.00E-02,  avg # of iterations =  2.6

     negative rho (up, down):  1.176E+00 0.000E+00

     total cpu time spent up to now is       42.8 secs

     total energy              =    -786.81023533 Ry
     Harris-Foulkes estimate   =    -778.83986209 Ry
     estimated scf accuracy    <      15.09952369 Ry

     iteration #  6     ecut=    80.00 Ry     beta= 0.40
     Davidson diagonalization with overlap
     ethr =  1.00E-02,  avg # of iterations =  2.6

     negative rho (up, down):  7.963E-01 0.000E+00

     total cpu time spent up to now is       47.1 secs

     total energy              =    -774.41977595 Ry
     Harris-Foulkes estimate   =    -789.66851392 Ry
     estimated scf accuracy    <      53.75754538 Ry

     iteration #  7     ecut=    80.00 Ry     beta= 0.40
     Davidson diagonalization with overlap
     ethr =  1.00E-02,  avg # of iterations =  6.3

     negative rho (up, down):  4.803E-01 0.000E+00

     total cpu time spent up to now is       53.8 secs

     total energy              =    -775.43474848 Ry
     Harris-Foulkes estimate   =    -777.19685616 Ry
     estimated scf accuracy    <      12.54967602 Ry

     iteration #  8     ecut=    80.00 Ry     beta= 0.40
     Davidson diagonalization with overlap
     ethr =  1.00E-02,  avg # of iterations =  2.4

     negative rho (up, down):  1.063E-01 0.000E+00

     total cpu time spent up to now is       58.4 secs

     total energy              =    -770.33076670 Ry
     Harris-Foulkes estimate   =    -775.45169504 Ry
     estimated scf accuracy    <      10.85149662 Ry

     iteration #  9     ecut=    80.00 Ry     beta= 0.40
     Davidson diagonalization with overlap
     ethr =  1.00E-02,  avg # of iterations =  5.0

     negative rho (up, down):  2.001E-01 0.000E+00

     total cpu time spent up to now is       65.1 secs

     total energy              =    -776.88027409 Ry
     Harris-Foulkes estimate   =    -778.57564905 Ry
     estimated scf accuracy    <       9.07062319 Ry

     iteration # 10     ecut=    80.00 Ry     beta= 0.40
     Davidson diagonalization with overlap
     ethr =  1.00E-02,  avg # of iterations =  1.5

     negative rho (up, down):  1.320E-01 0.000E+00

     total cpu time spent up to now is       69.1 secs

     total energy              =    -777.69161560 Ry
     Harris-Foulkes estimate   =    -777.02320623 Ry
     estimated scf accuracy    <       8.90652031 Ry

     iteration # 11     ecut=    80.00 Ry     beta= 0.40
     Davidson diagonalization with overlap
     ethr =  1.00E-02,  avg # of iterations =  1.5

     negative rho (up, down):  6.355E-02 0.000E+00

     total cpu time spent up to now is       73.2 secs

     total energy              =    -779.74892749 Ry
     Harris-Foulkes estimate   =    -777.98800854 Ry
     estimated scf accuracy    <      11.69939323 Ry

     iteration # 12     ecut=    80.00 Ry     beta= 0.40
     Davidson diagonalization with overlap
     ethr =  1.00E-02,  avg # of iterations =  1.3

     negative rho (up, down):  9.089E-02 0.000E+00

     total cpu time spent up to now is       77.4 secs

     total energy              =    -777.44271385 Ry
     Harris-Foulkes estimate   =    -780.01204071 Ry
     estimated scf accuracy    <      15.02649015 Ry

     iteration # 13     ecut=    80.00 Ry     beta= 0.40
     Davidson diagonalization with overlap
     ethr =  1.00E-02,  avg # of iterations =  1.0

     negative rho (up, down):  6.793E-02 0.000E+00

     total cpu time spent up to now is       81.3 secs

     total energy              =    -775.62385084 Ry
     Harris-Foulkes estimate   =    -777.47562396 Ry
     estimated scf accuracy    <      12.04679856 Ry

     iteration # 14     ecut=    80.00 Ry     beta= 0.40
     Davidson diagonalization with overlap
     ethr =  1.00E-02,  avg # of iterations =  1.0

     negative rho (up, down):  1.178E-01 0.000E+00

     total cpu time spent up to now is       85.1 secs

     total energy              =    -773.37601114 Ry
     Harris-Foulkes estimate   =    -775.67366821 Ry
     estimated scf accuracy    <       4.24377707 Ry

     iteration # 15     ecut=    80.00 Ry     beta= 0.40
     Davidson diagonalization with overlap
     ethr =  1.00E-02,  avg # of iterations =  4.0

     negative rho (up, down):  2.506E-01 0.000E+00

     total cpu time spent up to now is       90.6 secs

     total energy              =    -776.49978715 Ry
     Harris-Foulkes estimate   =    -777.60479791 Ry
     estimated scf accuracy    <      17.96818468 Ry

     iteration # 16     ecut=    80.00 Ry     beta= 0.40
     Davidson diagonalization with overlap
     ethr =  1.00E-02,  avg # of iterations =  2.0

     negative rho (up, down):  2.742E-01 0.000E+00

     total cpu time spent up to now is       94.9 secs

     total energy              =    -776.42506478 Ry
     Harris-Foulkes estimate   =    -776.60062779 Ry
     estimated scf accuracy    <      13.81244500 Ry

     iteration # 17     ecut=    80.00 Ry     beta= 0.40
     Davidson diagonalization with overlap
     ethr =  1.00E-02,  avg # of iterations =  1.0

     negative rho (up, down):  2.729E-01 0.000E+00

     total cpu time spent up to now is       98.7 secs

     total energy              =    -776.44406798 Ry
     Harris-Foulkes estimate   =    -776.43539873 Ry
     estimated scf accuracy    <      13.50922275 Ry

     iteration # 18     ecut=    80.00 Ry     beta= 0.40
     Davidson diagonalization with overlap
     ethr =  1.00E-02,  avg # of iterations =  1.0

     negative rho (up, down):  2.858E-01 0.000E+00

     total cpu time spent up to now is      102.7 secs

     total energy              =    -776.55986157 Ry
     Harris-Foulkes estimate   =    -776.44868343 Ry
     estimated scf accuracy    <      13.50274490 Ry

     iteration # 19     ecut=    80.00 Ry     beta= 0.40
     Davidson diagonalization with overlap
     ethr =  1.00E-02,  avg # of iterations =  1.0

     negative rho (up, down):  2.833E-01 0.000E+00

     total cpu time spent up to now is      106.7 secs

     total energy              =    -775.98259051 Ry
     Harris-Foulkes estimate   =    -776.56353242 Ry
     estimated scf accuracy    <      13.53902443 Ry

     iteration # 20     ecut=    80.00 Ry     beta= 0.40
     Davidson diagonalization with overlap
     ethr =  1.00E-02,  avg # of iterations =  1.0

     negative rho (up, down):  1.404E-01 0.000E+00

     total cpu time spent up to now is      110.7 secs

     total energy              =    -771.19914574 Ry
     Harris-Foulkes estimate   =    -775.98569832 Ry
     estimated scf accuracy    <      12.76471490 Ry

     iteration # 21     ecut=    80.00 Ry     beta= 0.40
     Davidson diagonalization with overlap
     ethr =  1.00E-02,  avg # of iterations =  3.1

     negative rho (up, down):  2.762E-01 0.000E+00

     total cpu time spent up to now is      115.8 secs

     total energy              =    -775.56949727 Ry
     Harris-Foulkes estimate   =    -778.31153248 Ry
     estimated scf accuracy    <      16.30145463 Ry

     iteration # 22     ecut=    80.00 Ry     beta= 0.40
     Davidson diagonalization with overlap
     ethr =  1.00E-02,  avg # of iterations =  1.3

     negative rho (up, down):  2.752E-01 0.000E+00

     total cpu time spent up to now is      119.8 secs

     total energy              =    -772.78953219 Ry
     Harris-Foulkes estimate   =    -775.60491546 Ry
     estimated scf accuracy    <      13.40557143 Ry

     iteration # 23     ecut=    80.00 Ry     beta= 0.40
     Davidson diagonalization with overlap
     ethr =  1.00E-02,  avg # of iterations =  1.0

     negative rho (up, down):  4.038E-01 0.000E+00

     total cpu time spent up to now is      123.7 secs

     total energy              =    -776.03744304 Ry
     Harris-Foulkes estimate   =    -775.73787674 Ry
     estimated scf accuracy    <      12.18938535 Ry

     iteration # 24     ecut=    80.00 Ry     beta= 0.40
     Davidson diagonalization with overlap
     ethr =  1.00E-02,  avg # of iterations =  1.0

     negative rho (up, down):  4.154E-01 0.000E+00

     total cpu time spent up to now is      127.6 secs

     total energy              =    -774.76101645 Ry
     Harris-Foulkes estimate   =    -776.04287146 Ry
     estimated scf accuracy    <      12.21396199 Ry

     iteration # 25     ecut=    80.00 Ry     beta= 0.40
     Davidson diagonalization with overlap
     ethr =  1.00E-02,  avg # of iterations =  1.1

     negative rho (up, down):  3.465E-01 0.000E+00

     total cpu time spent up to now is      132.1 secs

     total energy              =    -775.14495833 Ry
     Harris-Foulkes estimate   =    -775.10565412 Ry
     estimated scf accuracy    <       1.20280867 Ry

     iteration # 26     ecut=    80.00 Ry     beta= 0.40
     Davidson diagonalization with overlap
     ethr =  1.00E-02,  avg # of iterations =  1.0

     negative rho (up, down):  1.858E-01 0.000E+00

     total cpu time spent up to now is      136.1 secs

     total energy              =    -774.91580284 Ry
     Harris-Foulkes estimate   =    -775.14554795 Ry
     estimated scf accuracy    <       1.11350029 Ry

     iteration # 27     ecut=    80.00 Ry     beta= 0.40
     Davidson diagonalization with overlap
     ethr =  1.00E-02,  avg # of iterations =  1.0

     negative rho (up, down):  4.460E-01 0.000E+00

     total cpu time spent up to now is      139.9 secs

     total energy              =    -775.52859356 Ry
     Harris-Foulkes estimate   =    -776.77731658 Ry
     estimated scf accuracy    <      13.40935359 Ry

     iteration # 28     ecut=    80.00 Ry     beta= 0.40
     Davidson diagonalization with overlap
     ethr =  1.00E-02,  avg # of iterations =  1.2

     negative rho (up, down):  1.995E-01 0.000E+00

     total cpu time spent up to now is      143.7 secs

     total energy              =    -777.15157645 Ry
     Harris-Foulkes estimate   =    -775.53269235 Ry
     estimated scf accuracy    <      11.46210732 Ry

     iteration # 29     ecut=    80.00 Ry     beta= 0.40
     Davidson diagonalization with overlap
     ethr =  1.00E-02,  avg # of iterations =  1.1

     negative rho (up, down):  3.566E-01 0.000E+00

     total cpu time spent up to now is      147.8 secs

     total energy              =    -775.79673107 Ry
     Harris-Foulkes estimate   =    -777.15599104 Ry
     estimated scf accuracy    <      13.83417156 Ry

     iteration # 30     ecut=    80.00 Ry     beta= 0.40
     Davidson diagonalization with overlap
     ethr =  1.00E-02,  avg # of iterations =  1.3

     negative rho (up, down):  6.165E-01 0.000E+00

     total cpu time spent up to now is      151.8 secs

     total energy              =    -774.84478441 Ry
     Harris-Foulkes estimate   =    -775.80019920 Ry
     estimated scf accuracy    <      11.95589127 Ry

     iteration # 31     ecut=    80.00 Ry     beta= 0.40
     Davidson diagonalization with overlap
     ethr =  1.00E-02,  avg # of iterations =  1.0

     negative rho (up, down):  4.897E-02 0.000E+00

     total cpu time spent up to now is      155.7 secs

     total energy              =    -775.06042019 Ry
     Harris-Foulkes estimate   =    -775.03103660 Ry
     estimated scf accuracy    <       1.47569734 Ry

     iteration # 32     ecut=    80.00 Ry     beta= 0.40
     Davidson diagonalization with overlap
     ethr =  1.00E-02,  avg # of iterations =  1.0

     negative rho (up, down):  5.361E-02 0.000E+00

     total cpu time spent up to now is      159.6 secs

     total energy              =    -774.93568271 Ry
     Harris-Foulkes estimate   =    -775.36333507 Ry
     estimated scf accuracy    <      12.36117803 Ry

     iteration # 33     ecut=    80.00 Ry     beta= 0.40
     Davidson diagonalization with overlap
     ethr =  1.00E-02,  avg # of iterations =  1.0

     negative rho (up, down):  5.719E-02 0.000E+00

     total cpu time spent up to now is      163.5 secs

     total energy              =    -775.33164132 Ry
     Harris-Foulkes estimate   =    -775.14705032 Ry
     estimated scf accuracy    <       0.59683509 Ry

     iteration # 34     ecut=    80.00 Ry     beta= 0.40
     Davidson diagonalization with overlap
     ethr =  6.63E-03,  avg # of iterations =  1.0

     negative rho (up, down):  4.136E-02 0.000E+00

     total cpu time spent up to now is      167.7 secs

     total energy              =    -775.48235941 Ry
     Harris-Foulkes estimate   =    -775.33720242 Ry
     estimated scf accuracy    <       0.82150194 Ry

     iteration # 35     ecut=    80.00 Ry     beta= 0.40
     Davidson diagonalization with overlap
     ethr =  6.63E-03,  avg # of iterations =  1.0

     negative rho (up, down):  3.998E-02 0.000E+00

     total cpu time spent up to now is      171.6 secs

     total energy              =    -775.44412786 Ry
     Harris-Foulkes estimate   =    -775.48464541 Ry
     estimated scf accuracy    <       0.94108246 Ry

     iteration # 36     ecut=    80.00 Ry     beta= 0.40
     Davidson diagonalization with overlap
     ethr =  6.63E-03,  avg # of iterations =  1.0

     negative rho (up, down):  4.643E-02 0.000E+00

     total cpu time spent up to now is      176.0 secs

     total energy              =    -775.46129112 Ry
     Harris-Foulkes estimate   =    -775.44493139 Ry
     estimated scf accuracy    <       0.86819307 Ry

     iteration # 37     ecut=    80.00 Ry     beta= 0.40
     Davidson diagonalization with overlap
     ethr =  6.63E-03,  avg # of iterations =  1.0

     negative rho (up, down):  2.606E-02 0.000E+00

     total cpu time spent up to now is      180.0 secs

     total energy              =    -775.14287187 Ry
     Harris-Foulkes estimate   =    -775.46158585 Ry
     estimated scf accuracy    <       0.98383078 Ry

     iteration # 38     ecut=    80.00 Ry     beta= 0.40
     Davidson diagonalization with overlap
     ethr =  6.63E-03,  avg # of iterations =  1.0

     negative rho (up, down):  5.173E-02 0.000E+00

     total cpu time spent up to now is      184.0 secs

     total energy              =    -775.56663486 Ry
     Harris-Foulkes estimate   =    -775.14586418 Ry
     estimated scf accuracy    <       0.58322593 Ry

     iteration # 39     ecut=    80.00 Ry     beta= 0.40
     Davidson diagonalization with overlap
     ethr =  6.48E-03,  avg # of iterations =  1.0

     negative rho (up, down):  5.020E-02 0.000E+00

     total cpu time spent up to now is      187.9 secs

     total energy              =    -775.45949690 Ry
     Harris-Foulkes estimate   =    -775.52313238 Ry
     estimated scf accuracy    <       1.03297788 Ry

     iteration # 40     ecut=    80.00 Ry     beta= 0.40
     Davidson diagonalization with overlap
     ethr =  6.48E-03,  avg # of iterations =  1.0

     negative rho (up, down):  4.294E-02 0.000E+00

     total cpu time spent up to now is      191.8 secs

     total energy              =    -775.36508594 Ry
     Harris-Foulkes estimate   =    -775.45982418 Ry
     estimated scf accuracy    <       0.93635419 Ry

     iteration # 41     ecut=    80.00 Ry     beta= 0.40
     Davidson diagonalization with overlap
     ethr =  6.48E-03,  avg # of iterations =  1.0

     negative rho (up, down):  3.206E-02 0.000E+00

     total cpu time spent up to now is      195.7 secs

     total energy              =    -775.07784185 Ry
     Harris-Foulkes estimate   =    -775.36543186 Ry
     estimated scf accuracy    <       0.78519230 Ry

     iteration # 42     ecut=    80.00 Ry     beta= 0.40
     Davidson diagonalization with overlap
     ethr =  6.48E-03,  avg # of iterations =  1.0

     negative rho (up, down):  4.068E-02 0.000E+00

     total cpu time spent up to now is      199.6 secs

     total energy              =    -774.25326923 Ry
     Harris-Foulkes estimate   =    -775.29591367 Ry
     estimated scf accuracy    <      13.70983649 Ry

     iteration # 43     ecut=    80.00 Ry     beta= 0.40
     Davidson diagonalization with overlap
     ethr =  6.48E-03,  avg # of iterations =  1.0

     negative rho (up, down):  3.851E-02 0.000E+00

     total cpu time spent up to now is      203.6 secs

     total energy              =    -775.25540718 Ry
     Harris-Foulkes estimate   =    -775.29505139 Ry
     estimated scf accuracy    <       0.68539301 Ry

     iteration # 44     ecut=    80.00 Ry     beta= 0.40
     Davidson diagonalization with overlap
     ethr =  6.48E-03,  avg # of iterations =  1.0

     negative rho (up, down):  3.867E-02 0.000E+00

     total cpu time spent up to now is      208.3 secs

     total energy              =    -775.25147939 Ry
     Harris-Foulkes estimate   =    -775.25551960 Ry
     estimated scf accuracy    <       0.62434002 Ry

     iteration # 45     ecut=    80.00 Ry     beta= 0.40
     Davidson diagonalization with overlap
     ethr =  6.48E-03,  avg # of iterations =  1.0

     negative rho (up, down):  3.860E-02 0.000E+00

     total cpu time spent up to now is      212.4 secs

     total energy              =    -775.26239242 Ry
     Harris-Foulkes estimate   =    -775.25149718 Ry
     estimated scf accuracy    <       0.61967850 Ry

     iteration # 46     ecut=    80.00 Ry     beta= 0.40
     Davidson diagonalization with overlap
     ethr =  6.48E-03,  avg # of iterations =  1.0

     negative rho (up, down):  3.859E-02 0.000E+00

     total cpu time spent up to now is      217.2 secs

     total energy              =    -775.26212558 Ry
     Harris-Foulkes estimate   =    -775.26240312 Ry
     estimated scf accuracy    <       0.63301557 Ry

     iteration # 47     ecut=    80.00 Ry     beta= 0.40
     Davidson diagonalization with overlap
     ethr =  6.48E-03,  avg # of iterations =  1.0

     negative rho (up, down):  3.769E-02 0.000E+00

     total cpu time spent up to now is      221.6 secs

     total energy              =    -775.24449630 Ry
     Harris-Foulkes estimate   =    -775.26212936 Ry
     estimated scf accuracy    <       0.63259642 Ry

     iteration # 48     ecut=    80.00 Ry     beta= 0.40
     Davidson diagonalization with overlap
     ethr =  6.48E-03,  avg # of iterations =  1.0

     negative rho (up, down):  3.723E-02 0.000E+00

     total cpu time spent up to now is      225.5 secs

     total energy              =    -775.23057595 Ry
     Harris-Foulkes estimate   =    -775.24451083 Ry
     estimated scf accuracy    <       0.60732938 Ry

     iteration # 49     ecut=    80.00 Ry     beta= 0.40
     Davidson diagonalization with overlap
     ethr =  6.48E-03,  avg # of iterations =  1.0

     negative rho (up, down):  3.880E-02 0.000E+00

     total cpu time spent up to now is      229.9 secs

     total energy              =    -775.26741939 Ry
     Harris-Foulkes estimate   =    -775.23058742 Ry
     estimated scf accuracy    <       0.58719702 Ry

     iteration # 50     ecut=    80.00 Ry     beta= 0.40
     Davidson diagonalization with overlap
     ethr =  6.48E-03,  avg # of iterations =  1.0

     negative rho (up, down):  3.961E-02 0.000E+00

     total cpu time spent up to now is      235.6 secs

     total energy              =    -775.28731826 Ry
     Harris-Foulkes estimate   =    -775.26747992 Ry
     estimated scf accuracy    <       0.64095937 Ry

     iteration # 51     ecut=    80.00 Ry     beta= 0.40
     Davidson diagonalization with overlap
     ethr =  6.48E-03,  avg # of iterations =  1.0

     negative rho (up, down):  2.141E-02 0.000E+00

     total cpu time spent up to now is      241.2 secs

     total energy              =    -774.77757087 Ry
     Harris-Foulkes estimate   =    -775.28735244 Ry
     estimated scf accuracy    <       0.66930116 Ry

     iteration # 52     ecut=    80.00 Ry     beta= 0.40
     Davidson diagonalization with overlap
     ethr =  6.48E-03,  avg # of iterations =  4.0

     negative rho (up, down):  2.129E-02 0.000E+00

     total cpu time spent up to now is      247.5 secs

     total energy              =    -778.78498519 Ry
     Harris-Foulkes estimate   =    -778.83654814 Ry
     estimated scf accuracy    <      22.25257438 Ry

     iteration # 53     ecut=    80.00 Ry     beta= 0.40
     Davidson diagonalization with overlap
     ethr =  6.48E-03,  avg # of iterations =  1.0

     negative rho (up, down):  2.079E-02 0.000E+00

     total cpu time spent up to now is      251.7 secs

     total energy              =    -778.92851788 Ry
     Harris-Foulkes estimate   =    -778.78897384 Ry
     estimated scf accuracy    <      22.17571125 Ry

     iteration # 54     ecut=    80.00 Ry     beta= 0.40
     Davidson diagonalization with overlap
     ethr =  6.48E-03,  avg # of iterations =  1.0

     negative rho (up, down):  2.093E-02 0.000E+00

     total cpu time spent up to now is      256.3 secs

     total energy              =    -778.14286665 Ry
     Harris-Foulkes estimate   =    -778.92978578 Ry
     estimated scf accuracy    <      22.45170392 Ry

     iteration # 55     ecut=    80.00 Ry     beta= 0.40
     Davidson diagonalization with overlap
     ethr =  6.48E-03,  avg # of iterations =  1.0

     negative rho (up, down):  2.187E-02 0.000E+00

     total cpu time spent up to now is      260.3 secs

     total energy              =    -779.40582821 Ry
     Harris-Foulkes estimate   =    -778.14625199 Ry
     estimated scf accuracy    <      21.01979863 Ry

     iteration # 56     ecut=    80.00 Ry     beta= 0.40
     Davidson diagonalization with overlap
     ethr =  6.48E-03,  avg # of iterations =  1.0

     negative rho (up, down):  2.272E-02 0.000E+00

     total cpu time spent up to now is      264.5 secs

     total energy              =    -779.98551769 Ry
     Harris-Foulkes estimate   =    -779.41012128 Ry
     estimated scf accuracy    <      22.92381375 Ry

     iteration # 57     ecut=    80.00 Ry     beta= 0.40
     Davidson diagonalization with overlap
     ethr =  6.48E-03,  avg # of iterations =  1.0

     negative rho (up, down):  2.165E-02 0.000E+00

     total cpu time spent up to now is      268.4 secs

     total energy              =    -779.08013169 Ry
     Harris-Foulkes estimate   =    -779.99031486 Ry
     estimated scf accuracy    <      23.97199223 Ry

     iteration # 58     ecut=    80.00 Ry     beta= 0.40
     Davidson diagonalization with overlap
     ethr =  6.48E-03,  avg # of iterations =  1.0

     negative rho (up, down):  3.767E-02 0.000E+00

     total cpu time spent up to now is      272.2 secs

     total energy              =    -774.30971262 Ry
     Harris-Foulkes estimate   =    -779.08210493 Ry
     estimated scf accuracy    <      22.72053574 Ry

     iteration # 59     ecut=    80.00 Ry     beta= 0.40
     Davidson diagonalization with overlap
     ethr =  6.48E-03,  avg # of iterations =  2.0

     negative rho (up, down):  3.764E-02 0.000E+00

     total cpu time spent up to now is      276.9 secs

     total energy              =    -775.18214635 Ry
     Harris-Foulkes estimate   =    -775.22099155 Ry
     estimated scf accuracy    <       0.57109796 Ry

     iteration # 60     ecut=    80.00 Ry     beta= 0.40
     Davidson diagonalization with overlap
     ethr =  6.35E-03,  avg # of iterations =  1.0

     negative rho (up, down):  3.131E-02 0.000E+00

     total cpu time spent up to now is      280.7 secs

     total energy              =    -775.03300022 Ry
     Harris-Foulkes estimate   =    -775.18493145 Ry
     estimated scf accuracy    <       0.51974356 Ry

     iteration # 61     ecut=    80.00 Ry     beta= 0.40
     Davidson diagonalization with overlap
     ethr =  5.77E-03,  avg # of iterations =  1.0

     negative rho (up, down):  2.284E-02 0.000E+00

     total cpu time spent up to now is      284.6 secs

     total energy              =    -776.81920883 Ry
     Harris-Foulkes estimate   =    -775.62262414 Ry
     estimated scf accuracy    <      14.26900272 Ry

     iteration # 62     ecut=    80.00 Ry     beta= 0.40
     Davidson diagonalization with overlap
     ethr =  5.77E-03,  avg # of iterations =  1.0

     negative rho (up, down):  2.501E-02 0.000E+00

     total cpu time spent up to now is      288.6 secs

     total energy              =    -776.43077394 Ry
     Harris-Foulkes estimate   =    -776.83340399 Ry
     estimated scf accuracy    <      16.23014566 Ry

     iteration # 63     ecut=    80.00 Ry     beta= 0.40
     Davidson diagonalization with overlap
     ethr =  5.77E-03,  avg # of iterations =  1.0

     negative rho (up, down):  2.664E-02 0.000E+00

     total cpu time spent up to now is      292.7 secs

     total energy              =    -776.60090103 Ry
     Harris-Foulkes estimate   =    -776.43560350 Ry
     estimated scf accuracy    <      15.73456323 Ry

     iteration # 64     ecut=    80.00 Ry     beta= 0.40
     Davidson diagonalization with overlap
     ethr =  5.77E-03,  avg # of iterations =  1.0

     negative rho (up, down):  2.749E-02 0.000E+00

     total cpu time spent up to now is      296.6 secs

     total energy              =    -776.09793842 Ry
     Harris-Foulkes estimate   =    -776.60351341 Ry
     estimated scf accuracy    <      16.11800592 Ry

     iteration # 65     ecut=    80.00 Ry     beta= 0.40
     Davidson diagonalization with overlap
     ethr =  5.77E-03,  avg # of iterations =  1.0

     negative rho (up, down):  2.550E-02 0.000E+00

     total cpu time spent up to now is      300.5 secs

     total energy              =    -779.62385543 Ry
     Harris-Foulkes estimate   =    -776.09926311 Ry
     estimated scf accuracy    <      15.42654913 Ry

     iteration # 66     ecut=    80.00 Ry     beta= 0.40
     Davidson diagonalization with overlap
     ethr =  5.77E-03,  avg # of iterations =  3.0

     negative rho (up, down):  3.447E-02 0.000E+00

     total cpu time spent up to now is      305.6 secs

     total energy              =    -774.44807522 Ry
     Harris-Foulkes estimate   =    -779.77762192 Ry
     estimated scf accuracy    <      24.11032983 Ry

     iteration # 67     ecut=    80.00 Ry     beta= 0.40
     Davidson diagonalization with overlap
     ethr =  5.77E-03,  avg # of iterations =  2.0

     negative rho (up, down):  2.490E-02 0.000E+00

     total cpu time spent up to now is      310.9 secs

     total energy              =    -774.90137921 Ry
     Harris-Foulkes estimate   =    -775.19404658 Ry
     estimated scf accuracy    <       0.54240528 Ry

     iteration # 68     ecut=    80.00 Ry     beta= 0.40
     Davidson diagonalization with overlap
     ethr =  5.77E-03,  avg # of iterations =  2.0

     negative rho (up, down):  2.044E-02 0.000E+00

     total cpu time spent up to now is      315.6 secs

     total energy              =    -777.53268847 Ry
     Harris-Foulkes estimate   =    -776.68277115 Ry
     estimated scf accuracy    <      17.04073602 Ry

     iteration # 69     ecut=    80.00 Ry     beta= 0.40
     Davidson diagonalization with overlap
     ethr =  5.77E-03,  avg # of iterations =  1.0

     negative rho (up, down):  3.521E-02 0.000E+00

     total cpu time spent up to now is      319.5 secs

     total energy              =    -774.50656688 Ry
     Harris-Foulkes estimate   =    -777.54094621 Ry
     estimated scf accuracy    <      18.53221311 Ry

     iteration # 70     ecut=    80.00 Ry     beta= 0.40
     Davidson diagonalization with overlap
     ethr =  5.77E-03,  avg # of iterations =  1.0

     negative rho (up, down):  3.286E-02 0.000E+00

     total cpu time spent up to now is      323.4 secs

     total energy              =    -775.11854707 Ry
     Harris-Foulkes estimate   =    -775.22031553 Ry
     estimated scf accuracy    <       0.57719847 Ry

     iteration # 71     ecut=    80.00 Ry     beta= 0.40
     Davidson diagonalization with overlap
     ethr =  5.77E-03,  avg # of iterations =  1.0

     negative rho (up, down):  3.527E-02 0.000E+00

     total cpu time spent up to now is      328.8 secs

     total energy              =    -775.16015306 Ry
     Harris-Foulkes estimate   =    -775.11703023 Ry
     estimated scf accuracy    <       0.06857864 Ry

     iteration # 72     ecut=    80.00 Ry     beta= 0.40
     Davidson diagonalization with overlap
     ethr =  7.62E-04,  avg # of iterations =  3.0

     negative rho (up, down):  3.202E-02 0.000E+00

     total cpu time spent up to now is      339.5 secs

     total energy              =    -775.10275136 Ry
     Harris-Foulkes estimate   =    -775.21927337 Ry
     estimated scf accuracy    <       0.57997562 Ry

     iteration # 73     ecut=    80.00 Ry     beta= 0.40
     Davidson diagonalization with overlap
     ethr =  7.62E-04,  avg # of iterations =  1.0

     negative rho (up, down):  3.249E-02 0.000E+00

     total cpu time spent up to now is      347.1 secs

     total energy              =    -775.09933010 Ry
     Harris-Foulkes estimate   =    -775.18729080 Ry
     estimated scf accuracy    <      15.44236161 Ry

     iteration # 74     ecut=    80.00 Ry     beta= 0.40
     Davidson diagonalization with overlap
     ethr =  7.62E-04,  avg # of iterations =  1.0

     negative rho (up, down):  3.198E-02 0.000E+00

     total cpu time spent up to now is      351.1 secs

     total energy              =    -775.14218568 Ry
     Harris-Foulkes estimate   =    -775.12171967 Ry
     estimated scf accuracy    <       0.89600435 Ry

     iteration # 75     ecut=    80.00 Ry     beta= 0.40
     Davidson diagonalization with overlap
     ethr =  7.62E-04,  avg # of iterations =  1.0

     negative rho (up, down):  3.130E-02 0.000E+00

     total cpu time spent up to now is      355.6 secs

     total energy              =    -775.28903388 Ry
     Harris-Foulkes estimate   =    -775.18444130 Ry
     estimated scf accuracy    <      15.64206912 Ry

     iteration # 76     ecut=    80.00 Ry     beta= 0.40
     Davidson diagonalization with overlap
     ethr =  7.62E-04,  avg # of iterations =  1.0

     negative rho (up, down):  2.737E-02 0.000E+00

     total cpu time spent up to now is      359.5 secs

     total energy              =    -775.87094489 Ry
     Harris-Foulkes estimate   =    -775.28355812 Ry
     estimated scf accuracy    <      13.56844631 Ry

     iteration # 77     ecut=    80.00 Ry     beta= 0.40
     Davidson diagonalization with overlap
     ethr =  7.62E-04,  avg # of iterations =  3.0

     negative rho (up, down):  2.949E-02 0.000E+00

     total cpu time spent up to now is      364.8 secs

     total energy              =    -775.56359233 Ry
     Harris-Foulkes estimate   =    -775.87974170 Ry
     estimated scf accuracy    <      15.06017812 Ry

     iteration # 78     ecut=    80.00 Ry     beta= 0.40
     Davidson diagonalization with overlap
     ethr =  7.62E-04,  avg # of iterations =  1.0

     negative rho (up, down):  2.897E-02 0.000E+00

     total cpu time spent up to now is      370.1 secs

     total energy              =    -775.64044967 Ry
     Harris-Foulkes estimate   =    -775.56444690 Ry
     estimated scf accuracy    <      14.57715826 Ry

     iteration # 79     ecut=    80.00 Ry     beta= 0.40
     Davidson diagonalization with overlap
     ethr =  7.62E-04,  avg # of iterations =  1.0

     negative rho (up, down):  3.076E-02 0.000E+00

     total cpu time spent up to now is      375.9 secs

     total energy              =    -775.40496102 Ry
     Harris-Foulkes estimate   =    -775.64065924 Ry
     estimated scf accuracy    <      14.67208284 Ry

     iteration # 80     ecut=    80.00 Ry     beta= 0.40
     Davidson diagonalization with overlap
     ethr =  7.62E-04,  avg # of iterations =  1.0

     negative rho (up, down):  2.896E-02 0.000E+00

     total cpu time spent up to now is      381.4 secs

     total energy              =    -775.65438979 Ry
     Harris-Foulkes estimate   =    -775.40595118 Ry
     estimated scf accuracy    <      14.20499180 Ry

     iteration # 81     ecut=    80.00 Ry     beta= 0.40
     Davidson diagonalization with overlap
     ethr =  7.62E-04,  avg # of iterations =  1.0

     negative rho (up, down):  2.833E-02 0.000E+00

     total cpu time spent up to now is      385.5 secs

     total energy              =    -775.75055483 Ry
     Harris-Foulkes estimate   =    -775.65479571 Ry
     estimated scf accuracy    <      14.56110503 Ry

     iteration # 82     ecut=    80.00 Ry     beta= 0.40
     Davidson diagonalization with overlap
     ethr =  7.62E-04,  avg # of iterations =  1.0

     negative rho (up, down):  3.185E-02 0.000E+00

     total cpu time spent up to now is      390.5 secs

     total energy              =    -775.16802299 Ry
     Harris-Foulkes estimate   =    -775.75075706 Ry
     estimated scf accuracy    <      14.72588804 Ry

     iteration # 83     ecut=    80.00 Ry     beta= 0.40
     Davidson diagonalization with overlap
     ethr =  7.62E-04,  avg # of iterations =  1.0

     negative rho (up, down):  2.979E-02 0.000E+00

     total cpu time spent up to now is      395.2 secs

     total energy              =    -775.53516874 Ry
     Harris-Foulkes estimate   =    -775.16567795 Ry
     estimated scf accuracy    <      15.48432288 Ry

     iteration # 84     ecut=    80.00 Ry     beta= 0.40
     Davidson diagonalization with overlap
     ethr =  7.62E-04,  avg # of iterations =  1.0

     negative rho (up, down):  2.290E-01 0.000E+00

     total cpu time spent up to now is      399.7 secs

     total energy              =    -768.75953493 Ry
     Harris-Foulkes estimate   =    -775.51888777 Ry
     estimated scf accuracy    <      14.34601237 Ry

     iteration # 85     ecut=    80.00 Ry     beta= 0.40
     Davidson diagonalization with overlap
     ethr =  7.62E-04,  avg # of iterations =  5.0

     negative rho (up, down):  8.807E-02 0.000E+00

     total cpu time spent up to now is      410.0 secs

     total energy              =    -772.59453957 Ry
     Harris-Foulkes estimate   =    -783.79364866 Ry
     estimated scf accuracy    <      41.85163940 Ry

     iteration # 86     ecut=    80.00 Ry     beta= 0.40
     Davidson diagonalization with overlap
     ethr =  7.62E-04,  avg # of iterations =  5.0

     negative rho (up, down):  7.037E-02 0.000E+00

     total cpu time spent up to now is      418.8 secs

     total energy              =    -775.46931318 Ry
     Harris-Foulkes estimate   =    -775.53140952 Ry
     estimated scf accuracy    <       1.05410007 Ry

     iteration # 87     ecut=    80.00 Ry     beta= 0.40
     Davidson diagonalization with overlap
     ethr =  7.62E-04,  avg # of iterations =  1.0

     negative rho (up, down):  2.701E-01 0.000E+00

     total cpu time spent up to now is      423.0 secs

     total energy              =    -778.57837267 Ry
     Harris-Foulkes estimate   =    -775.46966449 Ry
     estimated scf accuracy    <       0.95098689 Ry

     iteration # 88     ecut=    80.00 Ry     beta= 0.40
     Davidson diagonalization with overlap
     ethr =  7.62E-04,  avg # of iterations =  4.0

     negative rho (up, down):  2.240E-01 0.000E+00

     total cpu time spent up to now is      431.9 secs

     total energy              =    -782.75997033 Ry
     Harris-Foulkes estimate   =    -785.95791356 Ry
     estimated scf accuracy    <      45.57825578 Ry

     iteration # 89     ecut=    80.00 Ry     beta= 0.40
     Davidson diagonalization with overlap
     ethr =  7.62E-04,  avg # of iterations =  2.0

     negative rho (up, down):  6.968E-02 0.000E+00

     total cpu time spent up to now is      436.6 secs

     total energy              =    -774.74103267 Ry
     Harris-Foulkes estimate   =    -782.78955718 Ry
     estimated scf accuracy    <      40.31067209 Ry

     iteration # 90     ecut=    80.00 Ry     beta= 0.40
     Davidson diagonalization with overlap
     ethr =  7.62E-04,  avg # of iterations =  4.0

     negative rho (up, down):  1.240E-01 0.000E+00

     total cpu time spent up to now is      444.4 secs

     total energy              =    -777.79105534 Ry
     Harris-Foulkes estimate   =    -776.33544835 Ry
     estimated scf accuracy    <      13.27994948 Ry

     iteration # 91     ecut=    80.00 Ry     beta= 0.40
     Davidson diagonalization with overlap
     ethr =  7.62E-04,  avg # of iterations =  1.4

     negative rho (up, down):  6.205E-02 0.000E+00

     total cpu time spent up to now is      448.7 secs

     total energy              =    -776.60105526 Ry
     Harris-Foulkes estimate   =    -777.84128242 Ry
     estimated scf accuracy    <      15.94200796 Ry

     iteration # 92     ecut=    80.00 Ry     beta= 0.40
     Davidson diagonalization with overlap
     ethr =  7.62E-04,  avg # of iterations =  2.0

     negative rho (up, down):  4.075E-02 0.000E+00

     total cpu time spent up to now is      453.1 secs

     total energy              =    -774.75760011 Ry
     Harris-Foulkes estimate   =    -776.67050988 Ry
     estimated scf accuracy    <      13.70097305 Ry

     iteration # 93     ecut=    80.00 Ry     beta= 0.40
     Davidson diagonalization with overlap
     ethr =  7.62E-04,  avg # of iterations =  2.2

     negative rho (up, down):  1.387E-02 0.000E+00

     total cpu time spent up to now is      458.1 secs

     total energy              =    -774.77207204 Ry
     Harris-Foulkes estimate   =    -775.46452919 Ry
     estimated scf accuracy    <       0.88412340 Ry

     iteration # 94     ecut=    80.00 Ry     beta= 0.40
     Davidson diagonalization with overlap
     ethr =  7.62E-04,  avg # of iterations =  5.4

     negative rho (up, down):  2.850E-02 0.000E+00

     total cpu time spent up to now is      466.0 secs

     total energy              =    -774.58256168 Ry
     Harris-Foulkes estimate   =    -778.04607872 Ry
     estimated scf accuracy    <      19.63116855 Ry

     iteration # 95     ecut=    80.00 Ry     beta= 0.40
     Davidson diagonalization with overlap
     ethr =  7.62E-04,  avg # of iterations =  4.0

     negative rho (up, down):  2.198E-02 0.000E+00

     total cpu time spent up to now is      475.2 secs

     total energy              =    -775.04349651 Ry
     Harris-Foulkes estimate   =    -775.19790165 Ry
     estimated scf accuracy    <       0.49617825 Ry

     iteration # 96     ecut=    80.00 Ry     beta= 0.40
     Davidson diagonalization with overlap
     ethr =  7.62E-04,  avg # of iterations =  3.0

     negative rho (up, down):  2.507E-02 0.000E+00

     total cpu time spent up to now is      480.7 secs

     total energy              =    -775.01789002 Ry
     Harris-Foulkes estimate   =    -775.52934798 Ry
     estimated scf accuracy    <      13.78075495 Ry

     iteration # 97     ecut=    80.00 Ry     beta= 0.40
     Davidson diagonalization with overlap
     ethr =  7.62E-04,  avg # of iterations =  1.0

     negative rho (up, down):  2.560E-02 0.000E+00

     total cpu time spent up to now is      484.4 secs

     total energy              =    -775.08111578 Ry
     Harris-Foulkes estimate   =    -775.13854308 Ry
     estimated scf accuracy    <       0.51791046 Ry

     iteration # 98     ecut=    80.00 Ry     beta= 0.40
     Davidson diagonalization with overlap
     ethr =  7.62E-04,  avg # of iterations =  1.0

     negative rho (up, down):  1.341E-02 0.000E+00

     total cpu time spent up to now is      488.2 secs

     total energy              =    -776.52848613 Ry
     Harris-Foulkes estimate   =    -775.26215338 Ry
     estimated scf accuracy    <      13.40678480 Ry

     iteration # 99     ecut=    80.00 Ry     beta= 0.40
     Davidson diagonalization with overlap
     ethr =  7.62E-04,  avg # of iterations =  4.0

     negative rho (up, down):  1.370E-02 0.000E+00

     total cpu time spent up to now is      493.7 secs

     total energy              =    -776.13926448 Ry
     Harris-Foulkes estimate   =    -776.54836631 Ry
     estimated scf accuracy    <      16.07551583 Ry

     iteration #100     ecut=    80.00 Ry     beta= 0.40
     Davidson diagonalization with overlap
     ethr =  7.62E-04,  avg # of iterations =  1.0

     negative rho (up, down):  1.227E-02 0.000E+00

     total cpu time spent up to now is      497.7 secs

     total energy              =    -776.11061102 Ry
     Harris-Foulkes estimate   =    -776.14069655 Ry
     estimated scf accuracy    <      15.36799155 Ry

     End of self-consistent calculation

     convergence NOT achieved after 100 iterations: stopping

     Writing output data file NNaCs.save/

     init_run     :      2.66s CPU      3.57s WALL (       1 calls)
     electrons    :    437.69s CPU    492.35s WALL (       1 calls)

     Called by init_run:
     wfcinit      :      2.12s CPU      2.81s WALL (       1 calls)
     potinit      :      0.10s CPU      0.18s WALL (       1 calls)
     hinit0       :      0.34s CPU      0.45s WALL (       1 calls)

     Called by electrons:
     c_bands      :    347.62s CPU    386.18s WALL (     100 calls)
     sum_band     :     73.96s CPU     82.63s WALL (     100 calls)
     v_of_rho     :      1.99s CPU      2.64s WALL (     101 calls)
     newd         :      7.55s CPU      7.88s WALL (     101 calls)
     PAW_pot      :      5.52s CPU     11.87s WALL (     101 calls)
     mix_rho      :      0.94s CPU      1.05s WALL (     100 calls)

     Called by c_bands:
     init_us_2    :     14.67s CPU     15.52s WALL (   22110 calls)
     cegterg      :    323.54s CPU    359.87s WALL (   11000 calls)

     Called by sum_band:
     sum_band:bec :      0.29s CPU      0.32s WALL (   11000 calls)
     addusdens    :      6.66s CPU      6.81s WALL (     100 calls)

     Called by *egterg:
     h_psi        :    262.22s CPU    292.79s WALL (   30955 calls)
     s_psi        :     16.48s CPU     17.16s WALL (   30955 calls)
     g_psi        :      0.67s CPU      0.71s WALL (   19845 calls)
     cdiaghg      :      5.24s CPU      5.69s WALL (   30845 calls)

     Called by h_psi:
     h_psi:pot    :    259.74s CPU    290.17s WALL (   30955 calls)
     h_psi:calbec :     24.96s CPU     27.86s WALL (   30955 calls)
     vloc_psi     :    216.42s CPU    242.91s WALL (   30955 calls)
     add_vuspsi   :     18.15s CPU     19.21s WALL (   30955 calls)

     General routines
     calbec       :     34.33s CPU     38.39s WALL (   41955 calls)
     fft          :      0.94s CPU      1.29s WALL (    1113 calls)
     ffts         :      0.07s CPU      0.11s WALL (     100 calls)
     fftw         :    217.58s CPU    247.18s WALL (  567646 calls)
     davcio       :      0.01s CPU      0.01s WALL (     128 calls)

     Parallel routines
     fft_scatt_xy :     24.36s CPU     26.14s WALL (  568859 calls)
     fft_scatt_yz :     52.25s CPU     71.13s WALL (  568859 calls)

     PWSCF        :  7m22.07s CPU     8m17.73s WALL


   This run was terminated on:  14:58:30  23Oct2018            

=------------------------------------------------------------------------------=
   JOB DONE.
=------------------------------------------------------------------------------=
-------------------------------------------------------
Primary job  terminated normally, but 1 process returned
a non-zero exit code.. Per user-direction, the job has been aborted.
-------------------------------------------------------
--------------------------------------------------------------------------
mpirun.openmpi detected that one or more processes exited with non-zero status, thus causing
the job to be terminated. The first process to do so was:

  Process name: [[7264,1],0]
  Exit code:    2
--------------------------------------------------------------------------
