
     Program PWSCF v.6.3MaX starts on 24Oct2018 at 13: 7:56 

     This program is part of the open-source Quantum ESPRESSO suite
     for quantum simulation of materials; please cite
         "P. Giannozzi et al., J. Phys.:Condens. Matter 21 395502 (2009);
         "P. Giannozzi et al., J. Phys.:Condens. Matter 29 465901 (2017);
          URL http://www.quantum-espresso.org", 
     in publications or presentations arising from this work. More details at
     http://www.quantum-espresso.org/quote

     Parallel version (MPI), running on     8 processors

     MPI processes distributed on     1 nodes
     R & G space division:  proc/nbgrp/npool/nimage =       8
     Waiting for input...
     Reading input from standard input
Warning: card &CELL ignored
Warning: card                CELL_DYNAMICS = 'BFGS' , ignored
Warning: card / ignored

     Current dimensions of program PWSCF are:
     Max number of different atomic species (ntypx) = 10
     Max number of k-points (npk) =  40000
     Max angular momentum in pseudopotentials (lmaxx) =  3
     Message from routine iosys:
     minimal I/O required, wf_collect reset to FALSE
               file N.pbe-n-kjpaw_psl.1.0.0.UPF: wavefunction(s)  2S renormalized
               file Na.pbe-spnl-kjpaw_psl.1.0.0.UPF: wavefunction(s)  2P renormalized

     Subspace diagonalization in iterative solution of the eigenvalue problem:
     a serial algorithm will be used


     Parallelization info
     --------------------
     sticks:   dense  smooth     PW     G-vecs:    dense   smooth      PW
     Min         154     154     45                 3593     3593     585
     Max         155     155     46                 3597     3597     587
     Sum        1237    1237    367                28763    28763    4693



     bravais-lattice index     =            2
     lattice parameter (alat)  =      10.6000  a.u.
     unit-cell volume          =     297.7540 (a.u.)^3
     number of atoms/cell      =            3
     number of atomic types    =            3
     number of electrons       =         9.00
     number of Kohn-Sham states=            9
     kinetic-energy cutoff     =      80.0000  Ry
     charge density cutoff     =     320.0000  Ry
     convergence threshold     =      1.0E-09
     mixing beta               =       0.4000
     number of iterations used =            8  plain     mixing
     Exchange-correlation      = SLA PW PBX PBC ( 1  4  3  4 0 0)

     celldm(1)=  10.600000  celldm(2)=   0.000000  celldm(3)=   0.000000
     celldm(4)=   0.000000  celldm(5)=   0.000000  celldm(6)=   0.000000

     crystal axes: (cart. coord. in units of alat)
               a(1) = (  -0.500000   0.000000   0.500000 )  
               a(2) = (   0.000000   0.500000   0.500000 )  
               a(3) = (  -0.500000   0.500000   0.000000 )  

     reciprocal axes: (cart. coord. in units 2 pi/alat)
               b(1) = ( -1.000000 -1.000000  1.000000 )  
               b(2) = (  1.000000  1.000000  1.000000 )  
               b(3) = ( -1.000000  1.000000 -1.000000 )  


     PseudoPot. # 1 for N  read from file:
     ./ps/N.pbe-n-kjpaw_psl.1.0.0.UPF
     MD5 check sum: 200139db3989ad6e773ddd42f12fc3a8
     Pseudo is Projector augmented-wave + core cor, Zval =  5.0
     Generated using "atomic" code by A. Dal Corso v.6.3
     Shape of augmentation charge: PSQ
     Using radial grid of 1085 points,  4 beta functions with: 
                l(1) =   0
                l(2) =   0
                l(3) =   1
                l(4) =   1
     Q(r) pseudized with 0 coefficients 


     PseudoPot. # 2 for Na read from file:
     ./ps/Na.pbe-spnl-kjpaw_psl.1.0.0.UPF
     MD5 check sum: 09e782c158f17eb2240230c4112357ee
     Pseudo is Projector augmented-wave + core cor, Zval =  9.0
     Generated using "atomic" code by A. Dal Corso v.6.3
     Shape of augmentation charge: PSQ
     Using radial grid of 1121 points,  4 beta functions with: 
                l(1) =   0
                l(2) =   0
                l(3) =   1
                l(4) =   1
     Q(r) pseudized with 0 coefficients 


     PseudoPot. # 3 for Cs read from file:
     ./ps/Cs.pbe-spnl-kjpaw_psl.1.0.0.UPF
     MD5 check sum: f98336d4a4407e24c1ab1e3bc36275e8
     Pseudo is Projector augmented-wave + core cor, Zval = -5.0
     Generated using "atomic" code by A. Dal Corso v.6.2.2
     Shape of augmentation charge: PSQ
     Using radial grid of 1251 points,  6 beta functions with: 
                l(1) =   0
                l(2) =   0
                l(3) =   1
                l(4) =   1
                l(5) =   2
                l(6) =   2
     Q(r) pseudized with 0 coefficients 


     atomic species   valence    mass     pseudopotential
        N              5.00    14.00670     N ( 1.00)
        Na             9.00    22.98977     Na( 1.00)
        Cs            -5.00   132.90545     Cs( 1.00)

     24 Sym. Ops. (no inversion) found



   Cartesian axes

     site n.     atom                  positions (alat units)
         1           N   tau(   1) = (   0.0000000   0.0000000   0.0000000  )
         2           Na  tau(   2) = (  -0.2500000   0.2500000   0.2500000  )
         3           Cs  tau(   3) = (  -0.7500000   0.7500000   0.7500000  )

     number of k points=   110  Methfessel-Paxton smearing, width (Ry)=  0.0200

     Number of k-points >= 100: set verbosity='high' to print them.

     Dense  grid:    28763 G-vectors     FFT dimensions: (  45,  45,  45)

     Estimated max dynamical RAM per process >      27.92 MB

     Estimated total dynamical RAM >     223.35 MB

     Check: negative/imaginary core charge=   -0.000003    0.000000

     Initial potential from superposition of free atoms

     starting charge   22.95298, renormalised to    9.00000
     Starting wfcs are   14 randomized atomic wfcs
     Checking if some PAW data can be deallocated... 

     total cpu time spent up to now is        5.9 secs

     Self-consistent Calculation

     iteration #  1     ecut=    80.00 Ry     beta= 0.40
     Davidson diagonalization with overlap
     ethr =  1.00E-02,  avg # of iterations =  5.0

     total cpu time spent up to now is       13.4 secs

     total energy              =   -1021.92530257 Ry
     Harris-Foulkes estimate   =   -1045.83912651 Ry
     estimated scf accuracy    <      41.75616045 Ry

     iteration #  2     ecut=    80.00 Ry     beta= 0.40
     Davidson diagonalization with overlap
     ethr =  1.00E-02,  avg # of iterations =  3.0

     total cpu time spent up to now is       17.8 secs

     total energy              =   -1029.60552582 Ry
     Harris-Foulkes estimate   =   -1044.75246687 Ry
     estimated scf accuracy    <      51.99653598 Ry

     iteration #  3     ecut=    80.00 Ry     beta= 0.40
     Davidson diagonalization with overlap
     ethr =  1.00E-02,  avg # of iterations =  2.0

     total cpu time spent up to now is       22.0 secs

     total energy              =   -1016.49474003 Ry
     Harris-Foulkes estimate   =   -1031.54187182 Ry
     estimated scf accuracy    <      19.45977516 Ry

     iteration #  4     ecut=    80.00 Ry     beta= 0.40
     Davidson diagonalization with overlap
     ethr =  1.00E-02,  avg # of iterations =  3.0

     total cpu time spent up to now is       27.1 secs

     total energy              =   -1042.18494136 Ry
     Harris-Foulkes estimate   =   -1054.23829605 Ry
     estimated scf accuracy    <      52.74125626 Ry

     iteration #  5     ecut=    80.00 Ry     beta= 0.40
     Davidson diagonalization with overlap
     ethr =  1.00E-02,  avg # of iterations =  2.0

     total cpu time spent up to now is       31.1 secs

     total energy              =   -1041.11843636 Ry
     Harris-Foulkes estimate   =   -1042.28646384 Ry
     estimated scf accuracy    <      38.44172722 Ry

     iteration #  6     ecut=    80.00 Ry     beta= 0.40
     Davidson diagonalization with overlap
     ethr =  1.00E-02,  avg # of iterations =  1.0

     total cpu time spent up to now is       34.6 secs

     total energy              =   -1028.41263427 Ry
     Harris-Foulkes estimate   =   -1041.12018233 Ry
     estimated scf accuracy    <      37.09037611 Ry

     iteration #  7     ecut=    80.00 Ry     beta= 0.40
     Davidson diagonalization with overlap
     ethr =  1.00E-02,  avg # of iterations =  2.0

     negative rho (up, down):  1.628E-01 0.000E+00

     total cpu time spent up to now is       38.7 secs

     total energy              =   -1047.07658983 Ry
     Harris-Foulkes estimate   =   -1030.44142378 Ry
     estimated scf accuracy    <       2.68604191 Ry

     iteration #  8     ecut=    80.00 Ry     beta= 0.40
     Davidson diagonalization with overlap
     ethr =  1.00E-02,  avg # of iterations =  7.3

     total cpu time spent up to now is       46.4 secs

     total energy              =   -1017.59629214 Ry
     Harris-Foulkes estimate   =   -1064.79493418 Ry
     estimated scf accuracy    <      64.40381065 Ry

     iteration #  9     ecut=    80.00 Ry     beta= 0.40
     Davidson diagonalization with overlap
     ethr =  1.00E-02,  avg # of iterations =  8.2

     negative rho (up, down):  6.259E-05 0.000E+00

     total cpu time spent up to now is       55.2 secs

     total energy              =   -1039.74349544 Ry
     Harris-Foulkes estimate   =   -1042.18505150 Ry
     estimated scf accuracy    <      57.29289614 Ry

     iteration # 10     ecut=    80.00 Ry     beta= 0.40
     Davidson diagonalization with overlap
     ethr =  1.00E-02,  avg # of iterations =  1.0

     negative rho (up, down):  8.346E-06 0.000E+00

     total cpu time spent up to now is       58.6 secs

     total energy              =   -1033.30553015 Ry
     Harris-Foulkes estimate   =   -1039.76840630 Ry
     estimated scf accuracy    <      44.65042120 Ry

     iteration # 11     ecut=    80.00 Ry     beta= 0.40
     Davidson diagonalization with overlap
     ethr =  1.00E-02,  avg # of iterations =  1.0

     negative rho (up, down):  2.023E-05 0.000E+00

     total cpu time spent up to now is       61.9 secs

     total energy              =   -1033.33426823 Ry
     Harris-Foulkes estimate   =   -1033.95501436 Ry
     estimated scf accuracy    <      19.94844046 Ry

     iteration # 12     ecut=    80.00 Ry     beta= 0.40
     Davidson diagonalization with overlap
     ethr =  1.00E-02,  avg # of iterations =  1.0

     negative rho (up, down):  2.398E-04 0.000E+00

     total cpu time spent up to now is       65.5 secs

     total energy              =   -1027.00058494 Ry
     Harris-Foulkes estimate   =   -1033.34291580 Ry
     estimated scf accuracy    <      18.25386596 Ry

     iteration # 13     ecut=    80.00 Ry     beta= 0.40
     Davidson diagonalization with overlap
     ethr =  1.00E-02,  avg # of iterations =  2.0

     total cpu time spent up to now is       69.3 secs

     total energy              =   -1031.71738377 Ry
     Harris-Foulkes estimate   =   -1029.32146142 Ry
     estimated scf accuracy    <      13.05259064 Ry

     iteration # 14     ecut=    80.00 Ry     beta= 0.40
     Davidson diagonalization with overlap
     ethr =  1.00E-02,  avg # of iterations =  1.0

     total cpu time spent up to now is       72.7 secs

     total energy              =   -1028.24053117 Ry
     Harris-Foulkes estimate   =   -1031.75123045 Ry
     estimated scf accuracy    <      17.14612917 Ry

     iteration # 15     ecut=    80.00 Ry     beta= 0.40
     Davidson diagonalization with overlap
     ethr =  1.00E-02,  avg # of iterations =  1.0

     total cpu time spent up to now is       76.1 secs

     total energy              =   -1027.37630807 Ry
     Harris-Foulkes estimate   =   -1028.46122667 Ry
     estimated scf accuracy    <       8.06611670 Ry

     iteration # 16     ecut=    80.00 Ry     beta= 0.40
     Davidson diagonalization with overlap
     ethr =  1.00E-02,  avg # of iterations =  1.0

     total cpu time spent up to now is       79.5 secs

     total energy              =   -1028.79272385 Ry
     Harris-Foulkes estimate   =   -1027.77359226 Ry
     estimated scf accuracy    <      11.70429822 Ry

     iteration # 17     ecut=    80.00 Ry     beta= 0.40
     Davidson diagonalization with overlap
     ethr =  1.00E-02,  avg # of iterations =  1.0

     total cpu time spent up to now is       82.9 secs

     total energy              =   -1025.29043890 Ry
     Harris-Foulkes estimate   =   -1028.82535195 Ry
     estimated scf accuracy    <      13.94385525 Ry

     iteration # 18     ecut=    80.00 Ry     beta= 0.40
     Davidson diagonalization with overlap
     ethr =  1.00E-02,  avg # of iterations =  3.0

     total cpu time spent up to now is       86.8 secs

     total energy              =   -1025.44873048 Ry
     Harris-Foulkes estimate   =   -1025.37028630 Ry
     estimated scf accuracy    <      10.06832905 Ry

     iteration # 19     ecut=    80.00 Ry     beta= 0.40
     Davidson diagonalization with overlap
     ethr =  1.00E-02,  avg # of iterations =  3.1

     negative rho (up, down):  2.118E-04 0.000E+00

     total cpu time spent up to now is       91.7 secs

     total energy              =   -1031.29470990 Ry
     Harris-Foulkes estimate   =   -1037.49885950 Ry
     estimated scf accuracy    <      14.08784866 Ry

     iteration # 20     ecut=    80.00 Ry     beta= 0.40
     Davidson diagonalization with overlap
     ethr =  1.00E-02,  avg # of iterations =  3.2

     negative rho (up, down):  8.660E-04 0.000E+00

     total cpu time spent up to now is       95.9 secs

     total energy              =   -1032.58047240 Ry
     Harris-Foulkes estimate   =   -1031.89407256 Ry
     estimated scf accuracy    <       5.24370550 Ry

     iteration # 21     ecut=    80.00 Ry     beta= 0.40
     Davidson diagonalization with overlap
     ethr =  1.00E-02,  avg # of iterations =  1.0

     negative rho (up, down):  5.700E-04 0.000E+00

     total cpu time spent up to now is       99.3 secs

     total energy              =   -1035.48327753 Ry
     Harris-Foulkes estimate   =   -1032.59253221 Ry
     estimated scf accuracy    <       6.31441712 Ry

     iteration # 22     ecut=    80.00 Ry     beta= 0.40
     Davidson diagonalization with overlap
     ethr =  1.00E-02,  avg # of iterations =  4.6

     negative rho (up, down):  1.397E-04 0.000E+00

     total cpu time spent up to now is      104.9 secs

     total energy              =   -1048.68275304 Ry
     Harris-Foulkes estimate   =   -1045.98802271 Ry
     estimated scf accuracy    <      38.83522164 Ry

     iteration # 23     ecut=    80.00 Ry     beta= 0.40
     Davidson diagonalization with overlap
     ethr =  1.00E-02,  avg # of iterations =  1.3

     negative rho (up, down):  7.706E-03 0.000E+00

     total cpu time spent up to now is      108.4 secs

     total energy              =   -1025.95682382 Ry
     Harris-Foulkes estimate   =   -1049.45902993 Ry
     estimated scf accuracy    <      47.56675593 Ry

     iteration # 24     ecut=    80.00 Ry     beta= 0.40
     Davidson diagonalization with overlap
     ethr =  1.00E-02,  avg # of iterations =  3.0

     negative rho (up, down):  1.789E-02 0.000E+00

     total cpu time spent up to now is      112.9 secs

     total energy              =   -1029.64300918 Ry
     Harris-Foulkes estimate   =   -1031.32251635 Ry
     estimated scf accuracy    <      11.37800035 Ry

     iteration # 25     ecut=    80.00 Ry     beta= 0.40
     Davidson diagonalization with overlap
     ethr =  1.00E-02,  avg # of iterations =  1.0

     negative rho (up, down):  4.887E-02 0.000E+00

     total cpu time spent up to now is      116.4 secs

     total energy              =   -1030.70624699 Ry
     Harris-Foulkes estimate   =   -1030.59105433 Ry
     estimated scf accuracy    <       2.82044567 Ry

     iteration # 26     ecut=    80.00 Ry     beta= 0.40
     Davidson diagonalization with overlap
     ethr =  1.00E-02,  avg # of iterations =  7.7

     negative rho (up, down):  2.107E-03 0.000E+00

     total cpu time spent up to now is      124.1 secs

     total energy              =   -1028.33155499 Ry
     Harris-Foulkes estimate   =   -1061.69069181 Ry
     estimated scf accuracy    <      80.13188259 Ry

     iteration # 27     ecut=    80.00 Ry     beta= 0.40
     Davidson diagonalization with overlap
     ethr =  1.00E-02,  avg # of iterations =  2.8

     negative rho (up, down):  1.229E-04 0.000E+00

     total cpu time spent up to now is      128.6 secs

     total energy              =   -1030.85740812 Ry
     Harris-Foulkes estimate   =   -1032.16046399 Ry
     estimated scf accuracy    <      11.87523727 Ry

     iteration # 28     ecut=    80.00 Ry     beta= 0.40
     Davidson diagonalization with overlap
     ethr =  1.00E-02,  avg # of iterations =  1.0

     negative rho (up, down):  1.709E-04 0.000E+00

     total cpu time spent up to now is      132.0 secs

     total energy              =   -1027.14663345 Ry
     Harris-Foulkes estimate   =   -1031.35338784 Ry
     estimated scf accuracy    <      17.34405878 Ry

     iteration # 29     ecut=    80.00 Ry     beta= 0.40
     Davidson diagonalization with overlap
     ethr =  1.00E-02,  avg # of iterations =  1.5

     negative rho (up, down):  1.109E-04 0.000E+00

     total cpu time spent up to now is      135.6 secs

     total energy              =   -1028.98811399 Ry
     Harris-Foulkes estimate   =   -1028.00337053 Ry
     estimated scf accuracy    <       7.49321312 Ry

     iteration # 30     ecut=    80.00 Ry     beta= 0.40
     Davidson diagonalization with overlap
     ethr =  1.00E-02,  avg # of iterations =  1.0

     negative rho (up, down):  3.619E-04 0.000E+00

     total cpu time spent up to now is      139.1 secs

     total energy              =   -1027.62424498 Ry
     Harris-Foulkes estimate   =   -1029.00397039 Ry
     estimated scf accuracy    <       8.42554363 Ry

     iteration # 31     ecut=    80.00 Ry     beta= 0.40
     Davidson diagonalization with overlap
     ethr =  1.00E-02,  avg # of iterations =  1.0

     negative rho (up, down):  3.864E-04 0.000E+00

     total cpu time spent up to now is      142.4 secs

     total energy              =   -1027.27614702 Ry
     Harris-Foulkes estimate   =   -1027.64016365 Ry
     estimated scf accuracy    <       6.85806780 Ry

     iteration # 32     ecut=    80.00 Ry     beta= 0.40
     Davidson diagonalization with overlap
     ethr =  1.00E-02,  avg # of iterations =  1.1

     negative rho (up, down):  4.947E-05 0.000E+00

     total cpu time spent up to now is      145.9 secs

     total energy              =   -1022.61566943 Ry
     Harris-Foulkes estimate   =   -1027.30731877 Ry
     estimated scf accuracy    <       6.29332219 Ry

     iteration # 33     ecut=    80.00 Ry     beta= 0.40
     Davidson diagonalization with overlap
     ethr =  1.00E-02,  avg # of iterations =  3.1

     negative rho (up, down):  5.591E-06 0.000E+00

     total cpu time spent up to now is      149.9 secs

     total energy              =   -1023.21599092 Ry
     Harris-Foulkes estimate   =   -1023.72957043 Ry
     estimated scf accuracy    <       5.73446263 Ry

     iteration # 34     ecut=    80.00 Ry     beta= 0.40
     Davidson diagonalization with overlap
     ethr =  1.00E-02,  avg # of iterations =  3.5

     negative rho (up, down):  1.940E-04 0.000E+00

     total cpu time spent up to now is      154.9 secs

     total energy              =   -1033.34802259 Ry
     Harris-Foulkes estimate   =   -1035.75172353 Ry
     estimated scf accuracy    <       8.75075747 Ry

     iteration # 35     ecut=    80.00 Ry     beta= 0.40
     Davidson diagonalization with overlap
     ethr =  1.00E-02,  avg # of iterations =  1.1

     negative rho (up, down):  1.395E-03 0.000E+00

     total cpu time spent up to now is      158.6 secs

     total energy              =   -1030.30718922 Ry
     Harris-Foulkes estimate   =   -1033.76374837 Ry
     estimated scf accuracy    <       6.29964329 Ry

     iteration # 36     ecut=    80.00 Ry     beta= 0.40
     Davidson diagonalization with overlap
     ethr =  1.00E-02,  avg # of iterations =  2.9

     negative rho (up, down):  1.641E-04 0.000E+00

     total cpu time spent up to now is      162.7 secs

     total energy              =   -1031.45722013 Ry
     Harris-Foulkes estimate   =   -1030.44405221 Ry
     estimated scf accuracy    <       2.13773889 Ry

     iteration # 37     ecut=    80.00 Ry     beta= 0.40
     Davidson diagonalization with overlap
     ethr =  1.00E-02,  avg # of iterations =  2.8

     negative rho (up, down):  2.170E-05 0.000E+00

     total cpu time spent up to now is      167.5 secs

     total energy              =   -1036.72596602 Ry
     Harris-Foulkes estimate   =   -1036.77792596 Ry
     estimated scf accuracy    <      28.43207900 Ry

     iteration # 38     ecut=    80.00 Ry     beta= 0.40
     Davidson diagonalization with overlap
     ethr =  1.00E-02,  avg # of iterations =  1.0

     negative rho (up, down):  4.651E-06 0.000E+00

     total cpu time spent up to now is      170.9 secs

     total energy              =   -1037.62826564 Ry
     Harris-Foulkes estimate   =   -1036.72900146 Ry
     estimated scf accuracy    <      28.42517049 Ry

     iteration # 39     ecut=    80.00 Ry     beta= 0.40
     Davidson diagonalization with overlap
     ethr =  1.00E-02,  avg # of iterations =  1.0

     negative rho (up, down):  6.006E-05 0.000E+00

     total cpu time spent up to now is      174.4 secs

     total energy              =   -1033.02645397 Ry
     Harris-Foulkes estimate   =   -1037.63084094 Ry
     estimated scf accuracy    <      29.57119461 Ry

     iteration # 40     ecut=    80.00 Ry     beta= 0.40
     Davidson diagonalization with overlap
     ethr =  1.00E-02,  avg # of iterations =  1.0

     negative rho (up, down):  1.857E-05 0.000E+00

     total cpu time spent up to now is      177.8 secs

     total energy              =   -1033.82140738 Ry
     Harris-Foulkes estimate   =   -1033.04932388 Ry
     estimated scf accuracy    <      24.06875353 Ry

     iteration # 41     ecut=    80.00 Ry     beta= 0.40
     Davidson diagonalization with overlap
     ethr =  1.00E-02,  avg # of iterations =  1.0

     negative rho (up, down):  3.188E-03 0.000E+00

     total cpu time spent up to now is      181.3 secs

     total energy              =   -1017.39843413 Ry
     Harris-Foulkes estimate   =   -1033.82298796 Ry
     estimated scf accuracy    <      24.95391536 Ry

     iteration # 42     ecut=    80.00 Ry     beta= 0.40
     Davidson diagonalization with overlap
     ethr =  1.00E-02,  avg # of iterations =  5.8

     negative rho (up, down):  1.749E-04 0.000E+00

     total cpu time spent up to now is      188.1 secs

     total energy              =   -1031.32993234 Ry
     Harris-Foulkes estimate   =   -1049.45538437 Ry
     estimated scf accuracy    <      65.95741466 Ry

     iteration # 43     ecut=    80.00 Ry     beta= 0.40
     Davidson diagonalization with overlap
     ethr =  1.00E-02,  avg # of iterations =  2.1

     negative rho (up, down):  1.268E-04 0.000E+00

     total cpu time spent up to now is      192.3 secs

     total energy              =   -1027.88653301 Ry
     Harris-Foulkes estimate   =   -1033.33353070 Ry
     estimated scf accuracy    <      20.80235970 Ry

     iteration # 44     ecut=    80.00 Ry     beta= 0.40
     Davidson diagonalization with overlap
     ethr =  1.00E-02,  avg # of iterations =  1.6

     negative rho (up, down):  9.177E-05 0.000E+00

     total cpu time spent up to now is      195.9 secs

     total energy              =   -1028.45930069 Ry
     Harris-Foulkes estimate   =   -1029.00623511 Ry
     estimated scf accuracy    <       1.32760337 Ry

     iteration # 45     ecut=    80.00 Ry     beta= 0.40
     Davidson diagonalization with overlap
     ethr =  1.00E-02,  avg # of iterations =  1.0

     negative rho (up, down):  9.873E-06 0.000E+00

     total cpu time spent up to now is      199.3 secs

     total energy              =   -1028.16131754 Ry
     Harris-Foulkes estimate   =   -1028.52255550 Ry
     estimated scf accuracy    <       0.56812687 Ry

     iteration # 46     ecut=    80.00 Ry     beta= 0.40
     Davidson diagonalization with overlap
     ethr =  6.31E-03,  avg # of iterations =  3.0

     negative rho (up, down):  1.400E-05 0.000E+00

     total cpu time spent up to now is      203.1 secs

     total energy              =   -1028.11377476 Ry
     Harris-Foulkes estimate   =   -1028.19930673 Ry
     estimated scf accuracy    <       0.14599144 Ry

     iteration # 47     ecut=    80.00 Ry     beta= 0.40
     Davidson diagonalization with overlap
     ethr =  1.62E-03,  avg # of iterations =  2.0

     negative rho (up, down):  8.698E-06 0.000E+00

     total cpu time spent up to now is      206.9 secs

     total energy              =   -1028.11507436 Ry
     Harris-Foulkes estimate   =   -1028.15197126 Ry
     estimated scf accuracy    <       0.12808964 Ry

     iteration # 48     ecut=    80.00 Ry     beta= 0.40
     Davidson diagonalization with overlap
     ethr =  1.42E-03,  avg # of iterations =  1.7

     negative rho (up, down):  1.702E-05 0.000E+00

     total cpu time spent up to now is      210.7 secs

     total energy              =   -1029.43593184 Ry
     Harris-Foulkes estimate   =   -1029.76913971 Ry
     estimated scf accuracy    <       0.78581066 Ry

     iteration # 49     ecut=    80.00 Ry     beta= 0.40
     Davidson diagonalization with overlap
     ethr =  1.42E-03,  avg # of iterations =  1.1

     negative rho (up, down):  2.169E-05 0.000E+00

     total cpu time spent up to now is      214.2 secs

     total energy              =   -1029.59183041 Ry
     Harris-Foulkes estimate   =   -1029.61117907 Ry
     estimated scf accuracy    <       0.46601797 Ry

     iteration # 50     ecut=    80.00 Ry     beta= 0.40
     Davidson diagonalization with overlap
     ethr =  1.42E-03,  avg # of iterations =  1.0

     negative rho (up, down):  2.443E-05 0.000E+00

     total cpu time spent up to now is      217.7 secs

     total energy              =   -1029.64087314 Ry
     Harris-Foulkes estimate   =   -1029.59324910 Ry
     estimated scf accuracy    <       0.42198792 Ry

     iteration # 51     ecut=    80.00 Ry     beta= 0.40
     Davidson diagonalization with overlap
     ethr =  1.42E-03,  avg # of iterations =  1.8

     negative rho (up, down):  2.242E-05 0.000E+00

     total cpu time spent up to now is      221.8 secs

     total energy              =   -1031.52740206 Ry
     Harris-Foulkes estimate   =   -1031.25606529 Ry
     estimated scf accuracy    <       2.57145802 Ry

     iteration # 52     ecut=    80.00 Ry     beta= 0.40
     Davidson diagonalization with overlap
     ethr =  1.42E-03,  avg # of iterations =  4.2

     negative rho (up, down):  9.583E-06 0.000E+00

     total cpu time spent up to now is      227.1 secs

     total energy              =   -1038.24145599 Ry
     Harris-Foulkes estimate   =   -1038.85939571 Ry
     estimated scf accuracy    <      27.47378380 Ry

     iteration # 53     ecut=    80.00 Ry     beta= 0.40
     Davidson diagonalization with overlap
     ethr =  1.42E-03,  avg # of iterations =  1.4

     negative rho (up, down):  8.033E-06 0.000E+00

     total cpu time spent up to now is      230.9 secs

     total energy              =   -1037.68376763 Ry
     Harris-Foulkes estimate   =   -1038.80953788 Ry
     estimated scf accuracy    <      31.10305895 Ry

     iteration # 54     ecut=    80.00 Ry     beta= 0.40
     Davidson diagonalization with overlap
     ethr =  1.42E-03,  avg # of iterations =  1.0

     negative rho (up, down):  7.116E-06 0.000E+00

     total cpu time spent up to now is      234.4 secs

     total energy              =   -1038.16322034 Ry
     Harris-Foulkes estimate   =   -1037.68661526 Ry
     estimated scf accuracy    <      29.70844837 Ry

     iteration # 55     ecut=    80.00 Ry     beta= 0.40
     Davidson diagonalization with overlap
     ethr =  1.42E-03,  avg # of iterations =  1.0

     negative rho (up, down):  1.238E-05 0.000E+00

     total cpu time spent up to now is      237.9 secs

     total energy              =   -1042.89284772 Ry
     Harris-Foulkes estimate   =   -1038.16435569 Ry
     estimated scf accuracy    <      30.29499677 Ry

     iteration # 56     ecut=    80.00 Ry     beta= 0.40
     Davidson diagonalization with overlap
     ethr =  1.42E-03,  avg # of iterations =  2.0

     negative rho (up, down):  1.113E-05 0.000E+00

     total cpu time spent up to now is      242.2 secs

     total energy              =   -1040.70167169 Ry
     Harris-Foulkes estimate   =   -1042.91854290 Ry
     estimated scf accuracy    <      36.16452498 Ry

     iteration # 57     ecut=    80.00 Ry     beta= 0.40
     Davidson diagonalization with overlap
     ethr =  1.42E-03,  avg # of iterations =  1.0

     negative rho (up, down):  1.810E-02 0.000E+00

     total cpu time spent up to now is      245.8 secs

     total energy              =   -1055.20654966 Ry
     Harris-Foulkes estimate   =   -1040.71008463 Ry
     estimated scf accuracy    <      33.48329884 Ry

     iteration # 58     ecut=    80.00 Ry     beta= 0.40
     Davidson diagonalization with overlap
     ethr =  1.42E-03,  avg # of iterations =  3.0

     negative rho (up, down):  1.992E-04 0.000E+00

     total cpu time spent up to now is      250.3 secs

     total energy              =   -1044.58765417 Ry
     Harris-Foulkes estimate   =   -1055.40985326 Ry
     estimated scf accuracy    <      51.73489808 Ry

     iteration # 59     ecut=    80.00 Ry     beta= 0.40
     Davidson diagonalization with overlap
     ethr =  1.42E-03,  avg # of iterations =  3.0

     negative rho (up, down):  2.348E-01 0.000E+00

     total cpu time spent up to now is      254.7 secs

     total energy              =   -1076.07476636 Ry
     Harris-Foulkes estimate   =   -1044.67374246 Ry
     estimated scf accuracy    <      38.38665340 Ry

     iteration # 60     ecut=    80.00 Ry     beta= 0.40
     Davidson diagonalization with overlap

 %%%%%%%%%%%%%%%%%%%%%%%%%%%%%%%%%%%%%%%%%%%%%%%%%%%%%%%%%%%%%%%%%%%%%%%%%%%%%%
     Error in routine cdiaghg (50):
     S matrix not positive definite
 %%%%%%%%%%%%%%%%%%%%%%%%%%%%%%%%%%%%%%%%%%%%%%%%%%%%%%%%%%%%%%%%%%%%%%%%%%%%%%

     stopping ...
--------------------------------------------------------------------------
MPI_ABORT was invoked on rank 0 in communicator MPI_COMM_WORLD 
with errorcode 1.

NOTE: invoking MPI_ABORT causes Open MPI to kill all MPI processes.
You may or may not see output from other processes, depending on
exactly when Open MPI kills them.
--------------------------------------------------------------------------
