
     Program PWSCF v.6.3MaX starts on 23Oct2018 at 13:34:51 

     This program is part of the open-source Quantum ESPRESSO suite
     for quantum simulation of materials; please cite
         "P. Giannozzi et al., J. Phys.:Condens. Matter 21 395502 (2009);
         "P. Giannozzi et al., J. Phys.:Condens. Matter 29 465901 (2017);
          URL http://www.quantum-espresso.org", 
     in publications or presentations arising from this work. More details at
     http://www.quantum-espresso.org/quote

     Parallel version (MPI), running on     8 processors

     MPI processes distributed on     1 nodes
     R & G space division:  proc/nbgrp/npool/nimage =       8
     Waiting for input...
     Reading input from standard input
Warning: card &CELL ignored
Warning: card                CELL_DYNAMICS = 'BFGS' , ignored
Warning: card / ignored

     Current dimensions of program PWSCF are:
     Max number of different atomic species (ntypx) = 10
     Max number of k-points (npk) =  40000
     Max angular momentum in pseudopotentials (lmaxx) =  3
               file N.pbe-n-kjpaw_psl.1.0.0.UPF: wavefunction(s)  2S renormalized
               file Na.pbe-spnl-kjpaw_psl.1.0.0.UPF: wavefunction(s)  2P renormalized

     Subspace diagonalization in iterative solution of the eigenvalue problem:
     a serial algorithm will be used


     Parallelization info
     --------------------
     sticks:   dense  smooth     PW     G-vecs:    dense   smooth      PW
     Min         291     291     84                 9269     9269    1440
     Max         292     292     85                 9273     9273    1443
     Sum        2335    2335    673                74177    74177   11527



     bravais-lattice index     =            2
     lattice parameter (alat)  =      14.6200  a.u.
     unit-cell volume          =     781.2358 (a.u.)^3
     number of atoms/cell      =            3
     number of atomic types    =            3
     number of electrons       =         9.00
     number of Kohn-Sham states=            9
     kinetic-energy cutoff     =      79.0000  Ry
     charge density cutoff     =     316.0000  Ry
     convergence threshold     =      1.0E-09
     mixing beta               =       0.4000
     number of iterations used =            8  plain     mixing
     Exchange-correlation      = SLA PW PBX PBC ( 1  4  3  4 0 0)

     celldm(1)=  14.620000  celldm(2)=   0.000000  celldm(3)=   0.000000
     celldm(4)=   0.000000  celldm(5)=   0.000000  celldm(6)=   0.000000

     crystal axes: (cart. coord. in units of alat)
               a(1) = (  -0.500000   0.000000   0.500000 )  
               a(2) = (   0.000000   0.500000   0.500000 )  
               a(3) = (  -0.500000   0.500000   0.000000 )  

     reciprocal axes: (cart. coord. in units 2 pi/alat)
               b(1) = ( -1.000000 -1.000000  1.000000 )  
               b(2) = (  1.000000  1.000000  1.000000 )  
               b(3) = ( -1.000000  1.000000 -1.000000 )  


     PseudoPot. # 1 for N  read from file:
     ./../ps/N.pbe-n-kjpaw_psl.1.0.0.UPF
     MD5 check sum: 200139db3989ad6e773ddd42f12fc3a8
     Pseudo is Projector augmented-wave + core cor, Zval =  5.0
     Generated using "atomic" code by A. Dal Corso v.6.3
     Shape of augmentation charge: PSQ
     Using radial grid of 1085 points,  4 beta functions with: 
                l(1) =   0
                l(2) =   0
                l(3) =   1
                l(4) =   1
     Q(r) pseudized with 0 coefficients 


     PseudoPot. # 2 for Na read from file:
     ./../ps/Na.pbe-spnl-kjpaw_psl.1.0.0.UPF
     MD5 check sum: 09e782c158f17eb2240230c4112357ee
     Pseudo is Projector augmented-wave + core cor, Zval =  9.0
     Generated using "atomic" code by A. Dal Corso v.6.3
     Shape of augmentation charge: PSQ
     Using radial grid of 1121 points,  4 beta functions with: 
                l(1) =   0
                l(2) =   0
                l(3) =   1
                l(4) =   1
     Q(r) pseudized with 0 coefficients 


     PseudoPot. # 3 for Cs read from file:
     ./../ps/Cs.pbe-spnl-kjpaw_psl.1.0.0.UPF
     MD5 check sum: f98336d4a4407e24c1ab1e3bc36275e8
     Pseudo is Projector augmented-wave + core cor, Zval = -5.0
     Generated using "atomic" code by A. Dal Corso v.6.2.2
     Shape of augmentation charge: PSQ
     Using radial grid of 1251 points,  6 beta functions with: 
                l(1) =   0
                l(2) =   0
                l(3) =   1
                l(4) =   1
                l(5) =   2
                l(6) =   2
     Q(r) pseudized with 0 coefficients 


     atomic species   valence    mass     pseudopotential
        N              5.00    14.00670     N ( 1.00)
        Na             9.00    22.98977     Na( 1.00)
        Cs            -5.00   132.90545     Cs( 1.00)

     24 Sym. Ops. (no inversion) found



   Cartesian axes

     site n.     atom                  positions (alat units)
         1           N   tau(   1) = (   0.0000000   0.0000000   0.0000000  )
         2           Na  tau(   2) = (  -0.2500000   0.2500000   0.2500000  )
         3           Cs  tau(   3) = (  -0.7500000   0.7500000   0.7500000  )

     number of k points=   110  Methfessel-Paxton smearing, width (Ry)=  0.0200

     Number of k-points >= 100: set verbosity='high' to print them.

     Dense  grid:    74177 G-vectors     FFT dimensions: (  60,  60,  60)

     Estimated max dynamical RAM per process >      63.03 MB

     Estimated total dynamical RAM >     504.21 MB

     Check: negative/imaginary core charge=   -0.000002    0.000000

     Initial potential from superposition of free atoms

     starting charge   22.95298, renormalised to    9.00000
     Starting wfcs are   14 randomized atomic wfcs
     Checking if some PAW data can be deallocated... 

     total cpu time spent up to now is        5.8 secs

     Self-consistent Calculation

     iteration #  1     ecut=    79.00 Ry     beta= 0.40
     Davidson diagonalization with overlap
     ethr =  1.00E-02,  avg # of iterations = 12.3

     total cpu time spent up to now is       21.7 secs

     total energy              =    -717.43664206 Ry
     Harris-Foulkes estimate   =    -745.46853193 Ry
     estimated scf accuracy    <      48.69598809 Ry

     iteration #  2     ecut=    79.00 Ry     beta= 0.40
     Davidson diagonalization with overlap
     ethr =  1.00E-02,  avg # of iterations =  3.0

     total cpu time spent up to now is       30.2 secs

     total energy              =    -709.75157981 Ry
     Harris-Foulkes estimate   =    -719.38937588 Ry
     estimated scf accuracy    <      11.17530586 Ry

     iteration #  3     ecut=    79.00 Ry     beta= 0.40
     Davidson diagonalization with overlap
     ethr =  1.00E-02,  avg # of iterations =  9.7

     negative rho (up, down):  9.374E-02 0.000E+00

     total cpu time spent up to now is       45.0 secs

     total energy              =    -712.59397841 Ry
     Harris-Foulkes estimate   =    -713.18273397 Ry
     estimated scf accuracy    <       1.08489029 Ry

     iteration #  4     ecut=    79.00 Ry     beta= 0.40
     Davidson diagonalization with overlap
     ethr =  1.00E-02,  avg # of iterations =  3.5

     negative rho (up, down):  1.858E-01 0.000E+00

     total cpu time spent up to now is       52.7 secs

     total energy              =    -712.73023147 Ry
     Harris-Foulkes estimate   =    -712.92027912 Ry
     estimated scf accuracy    <       0.27957969 Ry

     iteration #  5     ecut=    79.00 Ry     beta= 0.40
     Davidson diagonalization with overlap
     ethr =  3.11E-03,  avg # of iterations =  5.9

     negative rho (up, down):  2.249E-01 0.000E+00

     total cpu time spent up to now is       62.6 secs

     total energy              =    -712.77475497 Ry
     Harris-Foulkes estimate   =    -712.82034876 Ry
     estimated scf accuracy    <       0.08157149 Ry

     iteration #  6     ecut=    79.00 Ry     beta= 0.40
     Davidson diagonalization with overlap
     ethr =  9.06E-04,  avg # of iterations =  2.8

     negative rho (up, down):  2.234E-01 0.000E+00

     total cpu time spent up to now is       69.9 secs

     total energy              =    -712.79077236 Ry
     Harris-Foulkes estimate   =    -712.79078603 Ry
     estimated scf accuracy    <       0.00004411 Ry

     iteration #  7     ecut=    79.00 Ry     beta= 0.40
     Davidson diagonalization with overlap
     ethr =  4.90E-07,  avg # of iterations = 12.4

     negative rho (up, down):  2.229E-01 0.000E+00

     total cpu time spent up to now is       87.6 secs

     total energy              =    -712.79192135 Ry
     Harris-Foulkes estimate   =    -712.79193831 Ry
     estimated scf accuracy    <       0.00001555 Ry

     iteration #  8     ecut=    79.00 Ry     beta= 0.40
     Davidson diagonalization with overlap
     ethr =  1.73E-07,  avg # of iterations =  3.0

     negative rho (up, down):  2.236E-01 0.000E+00

     total cpu time spent up to now is       95.0 secs

     total energy              =    -712.79193111 Ry
     Harris-Foulkes estimate   =    -712.79193458 Ry
     estimated scf accuracy    <       0.00000757 Ry

     iteration #  9     ecut=    79.00 Ry     beta= 0.40
     Davidson diagonalization with overlap
     ethr =  8.41E-08,  avg # of iterations =  2.0

     negative rho (up, down):  2.236E-01 0.000E+00

     total cpu time spent up to now is      102.1 secs

     total energy              =    -712.79193092 Ry
     Harris-Foulkes estimate   =    -712.79193318 Ry
     estimated scf accuracy    <       0.00000138 Ry

     iteration # 10     ecut=    79.00 Ry     beta= 0.40
     Davidson diagonalization with overlap
     ethr =  1.53E-08,  avg # of iterations =  2.1

     negative rho (up, down):  2.235E-01 0.000E+00

     total cpu time spent up to now is      108.9 secs

     total energy              =    -712.79193045 Ry
     Harris-Foulkes estimate   =    -712.79193110 Ry
     estimated scf accuracy    <       0.00000032 Ry

     iteration # 11     ecut=    79.00 Ry     beta= 0.40
     Davidson diagonalization with overlap
     ethr =  3.56E-09,  avg # of iterations =  2.4

     negative rho (up, down):  2.235E-01 0.000E+00

     total cpu time spent up to now is      116.3 secs

     total energy              =    -712.79193053 Ry
     Harris-Foulkes estimate   =    -712.79193057 Ry
     estimated scf accuracy    <       0.00000002 Ry

     iteration # 12     ecut=    79.00 Ry     beta= 0.40
     Davidson diagonalization with overlap
     ethr =  2.25E-10,  avg # of iterations =  3.0

     negative rho (up, down):  2.235E-01 0.000E+00

     total cpu time spent up to now is      124.6 secs

     End of self-consistent calculation

     Number of k-points >= 100: set verbosity='high' to print the bands.

     the Fermi energy is  -323.9774 ev

!    total energy              =    -712.79193054 Ry
     Harris-Foulkes estimate   =    -712.79193054 Ry
     estimated scf accuracy    <          6.5E-10 Ry

     total all-electron energy =    -16167.877706 Ry

     The total energy is the sum of the following terms:

     one-electron contribution =    -316.87193132 Ry
     hartree contribution      =      54.82431980 Ry
     xc contribution           =     -28.95918239 Ry
     ewald contribution        =     -36.56760676 Ry
     one-center paw contrib.   =    -385.20887998 Ry
     smearing contrib. (-TS)   =      -0.00864989 Ry

     convergence has been achieved in  12 iterations

     negative rho (up, down):  2.235E-01 0.000E+00

     Forces acting on atoms (cartesian axes, Ry/au):

     atom    1 type  1   force =    -0.00000000    0.00000000    0.00000000
     atom    2 type  2   force =     0.00000000    0.00000000    0.00000000
     atom    3 type  3   force =     0.00000000    0.00000000    0.00000000

     Total force =     0.000000     Total SCF correction =     0.000000


     Computing stress (Cartesian axis) and pressure


     negative rho (up, down):  2.235E-01 0.000E+00
          total   stress  (Ry/bohr**3)                   (kbar)     P=********
  -0.14343714  -0.00000000  -0.00000000     -21100.33     -0.00     -0.00
  -0.00000000  -0.14343714  -0.00000000         -0.00 -21100.33     -0.00
  -0.00000000  -0.00000000  -0.14343714         -0.00     -0.00 -21100.33


     Writing output data file NNaCs.save/

     init_run     :      3.63s CPU      3.95s WALL (       1 calls)
     electrons    :    113.51s CPU    118.78s WALL (       1 calls)
     forces       :      1.05s CPU      1.08s WALL (       1 calls)
     stress       :      2.37s CPU      2.41s WALL (       1 calls)

     Called by init_run:
     wfcinit      :      2.93s CPU      3.05s WALL (       1 calls)
     potinit      :      0.13s CPU      0.21s WALL (       1 calls)
     hinit0       :      0.41s CPU      0.52s WALL (       1 calls)

     Called by electrons:
     c_bands      :     95.77s CPU     99.20s WALL (      12 calls)
     sum_band     :     15.34s CPU     16.37s WALL (      12 calls)
     v_of_rho     :      0.39s CPU      0.46s WALL (      13 calls)
     newd         :      1.32s CPU      1.35s WALL (      13 calls)
     PAW_pot      :      0.71s CPU      1.48s WALL (      13 calls)
     mix_rho      :      0.11s CPU      0.12s WALL (      12 calls)

     Called by c_bands:
     init_us_2    :      2.68s CPU      2.77s WALL (    2970 calls)
     cegterg      :     92.07s CPU     95.38s WALL (    1320 calls)

     Called by sum_band:
     sum_band:bec :      0.04s CPU      0.05s WALL (    1320 calls)
     addusdens    :      1.08s CPU      1.10s WALL (      12 calls)

     Called by *egterg:
     h_psi        :     74.76s CPU     77.60s WALL (    8260 calls)
     s_psi        :      4.43s CPU      4.52s WALL (    8260 calls)
     g_psi        :      0.20s CPU      0.21s WALL (    6830 calls)
     cdiaghg      :      1.73s CPU      1.78s WALL (    8150 calls)

     Called by h_psi:
     h_psi:pot    :     73.95s CPU     76.77s WALL (    8260 calls)
     h_psi:calbec :      7.44s CPU      7.71s WALL (    8260 calls)
     vloc_psi     :     61.03s CPU     63.45s WALL (    8260 calls)
     add_vuspsi   :      5.40s CPU      5.54s WALL (    8260 calls)

     General routines
     calbec       :      9.43s CPU      9.85s WALL (   10130 calls)
     fft          :      0.19s CPU      0.23s WALL (     169 calls)
     ffts         :      0.01s CPU      0.02s WALL (      12 calls)
     fftw         :     46.32s CPU     48.67s WALL (   99414 calls)

     Parallel routines
     fft_scatt_xy :      6.40s CPU      6.65s WALL (   99595 calls)
     fft_scatt_yz :      9.66s CPU     10.80s WALL (   99595 calls)

     PWSCF        :  2m 2.47s CPU     2m 8.29s WALL


   This run was terminated on:  13:36:59  23Oct2018            

=------------------------------------------------------------------------------=
   JOB DONE.
=------------------------------------------------------------------------------=
