
     Program PWSCF v.6.3MaX starts on 23Oct2018 at 13:54:58 

     This program is part of the open-source Quantum ESPRESSO suite
     for quantum simulation of materials; please cite
         "P. Giannozzi et al., J. Phys.:Condens. Matter 21 395502 (2009);
         "P. Giannozzi et al., J. Phys.:Condens. Matter 29 465901 (2017);
          URL http://www.quantum-espresso.org", 
     in publications or presentations arising from this work. More details at
     http://www.quantum-espresso.org/quote

     Parallel version (MPI), running on     8 processors

     MPI processes distributed on     1 nodes
     R & G space division:  proc/nbgrp/npool/nimage =       8
     Waiting for input...
     Reading input from standard input
Warning: card &CELL ignored
Warning: card                CELL_DYNAMICS = 'BFGS' , ignored
Warning: card / ignored

     Current dimensions of program PWSCF are:
     Max number of different atomic species (ntypx) = 10
     Max number of k-points (npk) =  40000
     Max angular momentum in pseudopotentials (lmaxx) =  3
               file N.pbe-n-kjpaw_psl.1.0.0.UPF: wavefunction(s)  2S renormalized
               file Na.pbe-spnl-kjpaw_psl.1.0.0.UPF: wavefunction(s)  2P renormalized

     Subspace diagonalization in iterative solution of the eigenvalue problem:
     a serial algorithm will be used


     Parallelization info
     --------------------
     sticks:   dense  smooth     PW     G-vecs:    dense   smooth      PW
     Min         340     340     96                11807    11807    1790
     Max         341     341     97                11810    11810    1794
     Sum        2725    2725    769                94473    94473   14331



     bravais-lattice index     =            2
     lattice parameter (alat)  =      14.6200  a.u.
     unit-cell volume          =     781.2358 (a.u.)^3
     number of atoms/cell      =            3
     number of atomic types    =            3
     number of electrons       =         9.00
     number of Kohn-Sham states=            9
     kinetic-energy cutoff     =      93.0000  Ry
     charge density cutoff     =     372.0000  Ry
     convergence threshold     =      1.0E-09
     mixing beta               =       0.4000
     number of iterations used =            8  plain     mixing
     Exchange-correlation      = SLA PW PBX PBC ( 1  4  3  4 0 0)

     celldm(1)=  14.620000  celldm(2)=   0.000000  celldm(3)=   0.000000
     celldm(4)=   0.000000  celldm(5)=   0.000000  celldm(6)=   0.000000

     crystal axes: (cart. coord. in units of alat)
               a(1) = (  -0.500000   0.000000   0.500000 )  
               a(2) = (   0.000000   0.500000   0.500000 )  
               a(3) = (  -0.500000   0.500000   0.000000 )  

     reciprocal axes: (cart. coord. in units 2 pi/alat)
               b(1) = ( -1.000000 -1.000000  1.000000 )  
               b(2) = (  1.000000  1.000000  1.000000 )  
               b(3) = ( -1.000000  1.000000 -1.000000 )  


     PseudoPot. # 1 for N  read from file:
     ./../ps/N.pbe-n-kjpaw_psl.1.0.0.UPF
     MD5 check sum: 200139db3989ad6e773ddd42f12fc3a8
     Pseudo is Projector augmented-wave + core cor, Zval =  5.0
     Generated using "atomic" code by A. Dal Corso v.6.3
     Shape of augmentation charge: PSQ
     Using radial grid of 1085 points,  4 beta functions with: 
                l(1) =   0
                l(2) =   0
                l(3) =   1
                l(4) =   1
     Q(r) pseudized with 0 coefficients 


     PseudoPot. # 2 for Na read from file:
     ./../ps/Na.pbe-spnl-kjpaw_psl.1.0.0.UPF
     MD5 check sum: 09e782c158f17eb2240230c4112357ee
     Pseudo is Projector augmented-wave + core cor, Zval =  9.0
     Generated using "atomic" code by A. Dal Corso v.6.3
     Shape of augmentation charge: PSQ
     Using radial grid of 1121 points,  4 beta functions with: 
                l(1) =   0
                l(2) =   0
                l(3) =   1
                l(4) =   1
     Q(r) pseudized with 0 coefficients 


     PseudoPot. # 3 for Cs read from file:
     ./../ps/Cs.pbe-spnl-kjpaw_psl.1.0.0.UPF
     MD5 check sum: f98336d4a4407e24c1ab1e3bc36275e8
     Pseudo is Projector augmented-wave + core cor, Zval = -5.0
     Generated using "atomic" code by A. Dal Corso v.6.2.2
     Shape of augmentation charge: PSQ
     Using radial grid of 1251 points,  6 beta functions with: 
                l(1) =   0
                l(2) =   0
                l(3) =   1
                l(4) =   1
                l(5) =   2
                l(6) =   2
     Q(r) pseudized with 0 coefficients 


     atomic species   valence    mass     pseudopotential
        N              5.00    14.00670     N ( 1.00)
        Na             9.00    22.98977     Na( 1.00)
        Cs            -5.00   132.90545     Cs( 1.00)

     24 Sym. Ops. (no inversion) found



   Cartesian axes

     site n.     atom                  positions (alat units)
         1           N   tau(   1) = (   0.0000000   0.0000000   0.0000000  )
         2           Na  tau(   2) = (  -0.2500000   0.2500000   0.2500000  )
         3           Cs  tau(   3) = (  -0.7500000   0.7500000   0.7500000  )

     number of k points=   110  Methfessel-Paxton smearing, width (Ry)=  0.0200

     Number of k-points >= 100: set verbosity='high' to print them.

     Dense  grid:    94473 G-vectors     FFT dimensions: (  64,  64,  64)

     Estimated max dynamical RAM per process >      78.20 MB

     Estimated total dynamical RAM >     625.58 MB

     Check: negative/imaginary core charge=   -0.000002    0.000000

     Initial potential from superposition of free atoms

     starting charge   22.95298, renormalised to    9.00000
     Starting wfcs are   14 randomized atomic wfcs
     Checking if some PAW data can be deallocated... 

     total cpu time spent up to now is        6.9 secs

     Self-consistent Calculation

     iteration #  1     ecut=    93.00 Ry     beta= 0.40
     Davidson diagonalization with overlap
     ethr =  1.00E-02,  avg # of iterations = 12.4

     total cpu time spent up to now is       29.0 secs

     total energy              =    -717.43539816 Ry
     Harris-Foulkes estimate   =    -745.47331978 Ry
     estimated scf accuracy    <      48.71029730 Ry

     iteration #  2     ecut=    93.00 Ry     beta= 0.40
     Davidson diagonalization with overlap
     ethr =  1.00E-02,  avg # of iterations =  3.0

     total cpu time spent up to now is       40.7 secs

     total energy              =    -709.75308866 Ry
     Harris-Foulkes estimate   =    -719.38884908 Ry
     estimated scf accuracy    <      11.17421144 Ry

     iteration #  3     ecut=    93.00 Ry     beta= 0.40
     Davidson diagonalization with overlap
     ethr =  1.00E-02,  avg # of iterations =  9.6

     negative rho (up, down):  9.372E-02 0.000E+00

     total cpu time spent up to now is       61.4 secs

     total energy              =    -712.59811625 Ry
     Harris-Foulkes estimate   =    -713.18537572 Ry
     estimated scf accuracy    <       1.08384892 Ry

     iteration #  4     ecut=    93.00 Ry     beta= 0.40
     Davidson diagonalization with overlap
     ethr =  1.00E-02,  avg # of iterations =  3.3

     negative rho (up, down):  1.860E-01 0.000E+00

     total cpu time spent up to now is       72.2 secs

     total energy              =    -712.73382549 Ry
     Harris-Foulkes estimate   =    -712.92304261 Ry
     estimated scf accuracy    <       0.27856280 Ry

     iteration #  5     ecut=    93.00 Ry     beta= 0.40
     Davidson diagonalization with overlap
     ethr =  3.10E-03,  avg # of iterations =  6.3

     negative rho (up, down):  2.252E-01 0.000E+00

     total cpu time spent up to now is       86.3 secs

     total energy              =    -712.77816029 Ry
     Harris-Foulkes estimate   =    -712.82376430 Ry
     estimated scf accuracy    <       0.08142823 Ry

     iteration #  6     ecut=    93.00 Ry     beta= 0.40
     Davidson diagonalization with overlap
     ethr =  9.05E-04,  avg # of iterations =  2.6

     negative rho (up, down):  2.238E-01 0.000E+00

     total cpu time spent up to now is       96.3 secs

     total energy              =    -712.79421313 Ry
     Harris-Foulkes estimate   =    -712.79422168 Ry
     estimated scf accuracy    <       0.00004161 Ry

     iteration #  7     ecut=    93.00 Ry     beta= 0.40
     Davidson diagonalization with overlap
     ethr =  4.62E-07,  avg # of iterations = 12.7

     negative rho (up, down):  2.236E-01 0.000E+00

     total cpu time spent up to now is      120.7 secs

     total energy              =    -712.79538580 Ry
     Harris-Foulkes estimate   =    -712.79539140 Ry
     estimated scf accuracy    <       0.00001337 Ry

     iteration #  8     ecut=    93.00 Ry     beta= 0.40
     Davidson diagonalization with overlap
     ethr =  1.49E-07,  avg # of iterations =  4.0

     negative rho (up, down):  2.243E-01 0.000E+00

     total cpu time spent up to now is      131.9 secs

     total energy              =    -712.79539441 Ry
     Harris-Foulkes estimate   =    -712.79539687 Ry
     estimated scf accuracy    <       0.00000676 Ry

     iteration #  9     ecut=    93.00 Ry     beta= 0.40
     Davidson diagonalization with overlap
     ethr =  7.51E-08,  avg # of iterations =  2.0

     negative rho (up, down):  2.242E-01 0.000E+00

     total cpu time spent up to now is      141.3 secs

     total energy              =    -712.79539372 Ry
     Harris-Foulkes estimate   =    -712.79539629 Ry
     estimated scf accuracy    <       0.00000157 Ry

     iteration # 10     ecut=    93.00 Ry     beta= 0.40
     Davidson diagonalization with overlap
     ethr =  1.74E-08,  avg # of iterations =  2.0

     negative rho (up, down):  2.242E-01 0.000E+00

     total cpu time spent up to now is      150.6 secs

     total energy              =    -712.79539335 Ry
     Harris-Foulkes estimate   =    -712.79539394 Ry
     estimated scf accuracy    <       0.00000031 Ry

     iteration # 11     ecut=    93.00 Ry     beta= 0.40
     Davidson diagonalization with overlap
     ethr =  3.44E-09,  avg # of iterations =  2.9

     negative rho (up, down):  2.241E-01 0.000E+00

     total cpu time spent up to now is      161.0 secs

     total energy              =    -712.79539344 Ry
     Harris-Foulkes estimate   =    -712.79539347 Ry
     estimated scf accuracy    <       0.00000002 Ry

     iteration # 12     ecut=    93.00 Ry     beta= 0.40
     Davidson diagonalization with overlap
     ethr =  2.03E-10,  avg # of iterations =  3.1

     negative rho (up, down):  2.241E-01 0.000E+00

     total cpu time spent up to now is      172.5 secs

     End of self-consistent calculation

     Number of k-points >= 100: set verbosity='high' to print the bands.

     the Fermi energy is  -324.0142 ev

!    total energy              =    -712.79539345 Ry
     Harris-Foulkes estimate   =    -712.79539345 Ry
     estimated scf accuracy    <          3.4E-10 Ry

     total all-electron energy =    -16167.881169 Ry

     The total energy is the sum of the following terms:

     one-electron contribution =    -316.87476832 Ry
     hartree contribution      =      54.82437647 Ry
     xc contribution           =     -28.95938780 Ry
     ewald contribution        =     -36.56760676 Ry
     one-center paw contrib.   =    -385.20935554 Ry
     smearing contrib. (-TS)   =      -0.00865150 Ry

     convergence has been achieved in  12 iterations

     negative rho (up, down):  2.241E-01 0.000E+00

     Forces acting on atoms (cartesian axes, Ry/au):

     atom    1 type  1   force =     0.00000000    0.00000000    0.00000000
     atom    2 type  2   force =     0.00000000    0.00000000   -0.00000000
     atom    3 type  3   force =    -0.00000000    0.00000000    0.00000000

     Total force =     0.000000     Total SCF correction =     0.000000


     Computing stress (Cartesian axis) and pressure


     negative rho (up, down):  2.241E-01 0.000E+00
          total   stress  (Ry/bohr**3)                   (kbar)     P=********
  -0.14342067  -0.00000000  -0.00000000     -21097.90     -0.00     -0.00
  -0.00000000  -0.14342067   0.00000000         -0.00 -21097.90      0.00
  -0.00000000   0.00000000  -0.14342067         -0.00      0.00 -21097.90


     Writing output data file NNaCs.save/

     init_run     :      4.82s CPU      5.17s WALL (       1 calls)
     electrons    :    158.11s CPU    165.55s WALL (       1 calls)
     forces       :      1.37s CPU      1.39s WALL (       1 calls)
     stress       :      3.31s CPU      3.34s WALL (       1 calls)

     Called by init_run:
     wfcinit      :      4.04s CPU      4.23s WALL (       1 calls)
     potinit      :      0.15s CPU      0.22s WALL (       1 calls)
     hinit0       :      0.41s CPU      0.47s WALL (       1 calls)

     Called by electrons:
     c_bands      :    134.74s CPU    140.19s WALL (      12 calls)
     sum_band     :     20.42s CPU     21.64s WALL (      12 calls)
     v_of_rho     :      0.50s CPU      0.56s WALL (      13 calls)
     newd         :      1.76s CPU      1.80s WALL (      13 calls)
     PAW_pot      :      0.68s CPU      1.42s WALL (      13 calls)
     mix_rho      :      0.16s CPU      0.16s WALL (      12 calls)

     Called by c_bands:
     init_us_2    :      3.65s CPU      3.79s WALL (    2970 calls)
     cegterg      :    130.02s CPU    135.33s WALL (    1320 calls)

     Called by sum_band:
     sum_band:bec :      0.04s CPU      0.04s WALL (    1320 calls)
     addusdens    :      1.48s CPU      1.50s WALL (      12 calls)

     Called by *egterg:
     h_psi        :    108.62s CPU    113.44s WALL (    8473 calls)
     s_psi        :      5.67s CPU      5.83s WALL (    8473 calls)
     g_psi        :      0.27s CPU      0.27s WALL (    7043 calls)
     cdiaghg      :      1.77s CPU      1.82s WALL (    8363 calls)

     Called by h_psi:
     h_psi:pot    :    107.81s CPU    112.61s WALL (    8473 calls)
     h_psi:calbec :      9.36s CPU      9.87s WALL (    8473 calls)
     vloc_psi     :     91.37s CPU     95.42s WALL (    8473 calls)
     add_vuspsi   :      7.00s CPU      7.26s WALL (    8473 calls)

     General routines
     calbec       :     11.85s CPU     12.54s WALL (   10343 calls)
     fft          :      0.29s CPU      0.33s WALL (     169 calls)
     ffts         :      0.02s CPU      0.02s WALL (      12 calls)
     fftw         :     76.19s CPU     79.83s WALL (  100198 calls)

     Parallel routines
     fft_scatt_xy :     16.22s CPU     17.02s WALL (  100379 calls)
     fft_scatt_yz :     14.09s CPU     14.95s WALL (  100379 calls)

     PWSCF        :  2m49.48s CPU     2m57.49s WALL


   This run was terminated on:  13:57:56  23Oct2018            

=------------------------------------------------------------------------------=
   JOB DONE.
=------------------------------------------------------------------------------=
