
     Program PWSCF v.6.3MaX starts on 24Oct2018 at  7:34:48 

     This program is part of the open-source Quantum ESPRESSO suite
     for quantum simulation of materials; please cite
         "P. Giannozzi et al., J. Phys.:Condens. Matter 21 395502 (2009);
         "P. Giannozzi et al., J. Phys.:Condens. Matter 29 465901 (2017);
          URL http://www.quantum-espresso.org", 
     in publications or presentations arising from this work. More details at
     http://www.quantum-espresso.org/quote

     Parallel version (MPI), running on     8 processors

     MPI processes distributed on     1 nodes
     R & G space division:  proc/nbgrp/npool/nimage =       8
     Waiting for input...
     Reading input from standard input
Warning: card &CELL ignored
Warning: card                CELL_DYNAMICS = 'BFGS' , ignored
Warning: card / ignored

     Current dimensions of program PWSCF are:
     Max number of different atomic species (ntypx) = 10
     Max number of k-points (npk) =  40000
     Max angular momentum in pseudopotentials (lmaxx) =  3
     Message from routine iosys:
     minimal I/O required, wf_collect reset to FALSE
               file N.pbe-n-kjpaw_psl.1.0.0.UPF: wavefunction(s)  2S renormalized
               file Na.pbe-spnl-kjpaw_psl.1.0.0.UPF: wavefunction(s)  2P renormalized

     Subspace diagonalization in iterative solution of the eigenvalue problem:
     a serial algorithm will be used


     Parallelization info
     --------------------
     sticks:   dense  smooth     PW     G-vecs:    dense   smooth      PW
     Min         144     144     43                 3218     3218     534
     Max         146     146     44                 3219     3219     537
     Sum        1159    1159    349                25749    25749    4285



     bravais-lattice index     =            2
     lattice parameter (alat)  =      10.2000  a.u.
     unit-cell volume          =     265.3020 (a.u.)^3
     number of atoms/cell      =            3
     number of atomic types    =            3
     number of electrons       =         9.00
     number of Kohn-Sham states=            9
     kinetic-energy cutoff     =      80.0000  Ry
     charge density cutoff     =     320.0000  Ry
     convergence threshold     =      1.0E-09
     mixing beta               =       0.4000
     number of iterations used =            8  plain     mixing
     Exchange-correlation      = SLA PW PBX PBC ( 1  4  3  4 0 0)

     celldm(1)=  10.200000  celldm(2)=   0.000000  celldm(3)=   0.000000
     celldm(4)=   0.000000  celldm(5)=   0.000000  celldm(6)=   0.000000

     crystal axes: (cart. coord. in units of alat)
               a(1) = (  -0.500000   0.000000   0.500000 )  
               a(2) = (   0.000000   0.500000   0.500000 )  
               a(3) = (  -0.500000   0.500000   0.000000 )  

     reciprocal axes: (cart. coord. in units 2 pi/alat)
               b(1) = ( -1.000000 -1.000000  1.000000 )  
               b(2) = (  1.000000  1.000000  1.000000 )  
               b(3) = ( -1.000000  1.000000 -1.000000 )  


     PseudoPot. # 1 for N  read from file:
     ./ps/N.pbe-n-kjpaw_psl.1.0.0.UPF
     MD5 check sum: 200139db3989ad6e773ddd42f12fc3a8
     Pseudo is Projector augmented-wave + core cor, Zval =  5.0
     Generated using "atomic" code by A. Dal Corso v.6.3
     Shape of augmentation charge: PSQ
     Using radial grid of 1085 points,  4 beta functions with: 
                l(1) =   0
                l(2) =   0
                l(3) =   1
                l(4) =   1
     Q(r) pseudized with 0 coefficients 


     PseudoPot. # 2 for Na read from file:
     ./ps/Na.pbe-spnl-kjpaw_psl.1.0.0.UPF
     MD5 check sum: 09e782c158f17eb2240230c4112357ee
     Pseudo is Projector augmented-wave + core cor, Zval =  9.0
     Generated using "atomic" code by A. Dal Corso v.6.3
     Shape of augmentation charge: PSQ
     Using radial grid of 1121 points,  4 beta functions with: 
                l(1) =   0
                l(2) =   0
                l(3) =   1
                l(4) =   1
     Q(r) pseudized with 0 coefficients 


     PseudoPot. # 3 for Cs read from file:
     ./ps/Cs.pbe-spnl-kjpaw_psl.1.0.0.UPF
     MD5 check sum: f98336d4a4407e24c1ab1e3bc36275e8
     Pseudo is Projector augmented-wave + core cor, Zval = -5.0
     Generated using "atomic" code by A. Dal Corso v.6.2.2
     Shape of augmentation charge: PSQ
     Using radial grid of 1251 points,  6 beta functions with: 
                l(1) =   0
                l(2) =   0
                l(3) =   1
                l(4) =   1
                l(5) =   2
                l(6) =   2
     Q(r) pseudized with 0 coefficients 


     atomic species   valence    mass     pseudopotential
        N              5.00    14.00670     N ( 1.00)
        Na             9.00    22.98977     Na( 1.00)
        Cs            -5.00   132.90545     Cs( 1.00)

     24 Sym. Ops. (no inversion) found



   Cartesian axes

     site n.     atom                  positions (alat units)
         1           N   tau(   1) = (   0.0000000   0.0000000   0.0000000  )
         2           Na  tau(   2) = (  -0.5000000   0.5000000   0.5000000  )
         3           Cs  tau(   3) = (  -0.7500000   0.7500000   0.7500000  )

     number of k points=   110  Methfessel-Paxton smearing, width (Ry)=  0.0200

     Number of k-points >= 100: set verbosity='high' to print them.

     Dense  grid:    25749 G-vectors     FFT dimensions: (  45,  45,  45)

     Estimated max dynamical RAM per process >      25.53 MB

     Estimated total dynamical RAM >     204.27 MB

     Check: negative/imaginary core charge=   -0.000002    0.000000

     Initial potential from superposition of free atoms

     starting charge   22.95298, renormalised to    9.00000
     Starting wfcs are   14 randomized atomic wfcs
     Checking if some PAW data can be deallocated... 

     total cpu time spent up to now is        5.1 secs

     Self-consistent Calculation

     iteration #  1     ecut=    80.00 Ry     beta= 0.40
     Davidson diagonalization with overlap
     ethr =  1.00E-02,  avg # of iterations = 10.2

     total cpu time spent up to now is       12.9 secs

     total energy              =   -1106.43016048 Ry
     Harris-Foulkes estimate   =   -1126.44793832 Ry
     estimated scf accuracy    <      34.78616009 Ry

     iteration #  2     ecut=    80.00 Ry     beta= 0.40
     Davidson diagonalization with overlap
     ethr =  1.00E-02,  avg # of iterations =  5.7

     total cpu time spent up to now is       17.6 secs

     total energy              =   -1101.43509347 Ry
     Harris-Foulkes estimate   =   -1107.94344443 Ry
     estimated scf accuracy    <       7.67648805 Ry

     iteration #  3     ecut=    80.00 Ry     beta= 0.40
     Davidson diagonalization with overlap
     ethr =  1.00E-02,  avg # of iterations =  3.1

     total cpu time spent up to now is       21.8 secs

     total energy              =   -1102.18387961 Ry
     Harris-Foulkes estimate   =   -1109.46895091 Ry
     estimated scf accuracy    <      44.48744759 Ry

     iteration #  4     ecut=    80.00 Ry     beta= 0.40
     Davidson diagonalization with overlap
     ethr =  1.00E-02,  avg # of iterations =  2.0

     total cpu time spent up to now is       25.6 secs

     total energy              =   -1103.72527212 Ry
     Harris-Foulkes estimate   =   -1104.05683134 Ry
     estimated scf accuracy    <       0.52016607 Ry

     iteration #  5     ecut=    80.00 Ry     beta= 0.40
     Davidson diagonalization with overlap
     ethr =  5.78E-03,  avg # of iterations =  4.0

     negative rho (up, down):  2.304E-05 0.000E+00

     total cpu time spent up to now is       30.4 secs

     total energy              =   -1103.42784797 Ry
     Harris-Foulkes estimate   =   -1105.05903236 Ry
     estimated scf accuracy    <       3.44502796 Ry

     iteration #  6     ecut=    80.00 Ry     beta= 0.40
     Davidson diagonalization with overlap
     ethr =  5.78E-03,  avg # of iterations =  2.0

     negative rho (up, down):  6.286E-06 0.000E+00

     total cpu time spent up to now is       34.1 secs

     total energy              =   -1103.83658746 Ry
     Harris-Foulkes estimate   =   -1103.83947320 Ry
     estimated scf accuracy    <       0.02593093 Ry

     iteration #  7     ecut=    80.00 Ry     beta= 0.40
     Davidson diagonalization with overlap
     ethr =  2.88E-04,  avg # of iterations =  5.5

     negative rho (up, down):  7.893E-06 0.000E+00

     total cpu time spent up to now is       38.8 secs

     total energy              =   -1103.84361243 Ry
     Harris-Foulkes estimate   =   -1103.84297171 Ry
     estimated scf accuracy    <       0.02231506 Ry

     iteration #  8     ecut=    80.00 Ry     beta= 0.40
     Davidson diagonalization with overlap
     ethr =  2.48E-04,  avg # of iterations =  1.0

     negative rho (up, down):  1.351E-05 0.000E+00

     total cpu time spent up to now is       41.9 secs

     total energy              =   -1103.83423588 Ry
     Harris-Foulkes estimate   =   -1103.84410451 Ry
     estimated scf accuracy    <       0.02389882 Ry

     iteration #  9     ecut=    80.00 Ry     beta= 0.40
     Davidson diagonalization with overlap
     ethr =  2.48E-04,  avg # of iterations =  1.0

     negative rho (up, down):  3.766E-04 0.000E+00

     total cpu time spent up to now is       44.9 secs

     total energy              =   -1103.83298269 Ry
     Harris-Foulkes estimate   =   -1103.83549734 Ry
     estimated scf accuracy    <       0.00684948 Ry

     iteration # 10     ecut=    80.00 Ry     beta= 0.40
     Davidson diagonalization with overlap
     ethr =  7.61E-05,  avg # of iterations =  3.2

     negative rho (up, down):  4.098E-04 0.000E+00

     total cpu time spent up to now is       48.8 secs

     total energy              =   -1103.83370841 Ry
     Harris-Foulkes estimate   =   -1103.83379547 Ry
     estimated scf accuracy    <       0.00130579 Ry

     iteration # 11     ecut=    80.00 Ry     beta= 0.40
     Davidson diagonalization with overlap
     ethr =  1.45E-05,  avg # of iterations =  2.2

     negative rho (up, down):  6.432E-04 0.000E+00

     total cpu time spent up to now is       52.1 secs

     total energy              =   -1103.83337993 Ry
     Harris-Foulkes estimate   =   -1103.83381248 Ry
     estimated scf accuracy    <       0.00121901 Ry

     iteration # 12     ecut=    80.00 Ry     beta= 0.40
     Davidson diagonalization with overlap
     ethr =  1.35E-05,  avg # of iterations =  1.0

     negative rho (up, down):  6.884E-04 0.000E+00

     total cpu time spent up to now is       55.0 secs

     total energy              =   -1103.83351204 Ry
     Harris-Foulkes estimate   =   -1103.83346536 Ry
     estimated scf accuracy    <       0.00034549 Ry

     iteration # 13     ecut=    80.00 Ry     beta= 0.40
     Davidson diagonalization with overlap
     ethr =  3.84E-06,  avg # of iterations =  2.1

     negative rho (up, down):  8.135E-04 0.000E+00

     total cpu time spent up to now is       58.6 secs

     total energy              =   -1103.83355743 Ry
     Harris-Foulkes estimate   =   -1103.83365904 Ry
     estimated scf accuracy    <       0.00110605 Ry

     iteration # 14     ecut=    80.00 Ry     beta= 0.40
     Davidson diagonalization with overlap
     ethr =  3.84E-06,  avg # of iterations =  1.1

     negative rho (up, down):  4.251E-04 0.000E+00

     total cpu time spent up to now is       62.0 secs

     total energy              =   -1103.83335710 Ry
     Harris-Foulkes estimate   =   -1103.83357982 Ry
     estimated scf accuracy    <       0.00061347 Ry

     iteration # 15     ecut=    80.00 Ry     beta= 0.40
     Davidson diagonalization with overlap
     ethr =  3.84E-06,  avg # of iterations =  1.0

     negative rho (up, down):  3.210E-04 0.000E+00

     total cpu time spent up to now is       65.1 secs

     total energy              =   -1103.83323953 Ry
     Harris-Foulkes estimate   =   -1103.83338107 Ry
     estimated scf accuracy    <       0.00043575 Ry

     iteration # 16     ecut=    80.00 Ry     beta= 0.40
     Davidson diagonalization with overlap
     ethr =  3.84E-06,  avg # of iterations =  1.0

     negative rho (up, down):  4.089E-04 0.000E+00

     total cpu time spent up to now is       68.4 secs

     total energy              =   -1103.83329388 Ry
     Harris-Foulkes estimate   =   -1103.83327624 Ry
     estimated scf accuracy    <       0.00006300 Ry

     iteration # 17     ecut=    80.00 Ry     beta= 0.40
     Davidson diagonalization with overlap
     ethr =  7.00E-07,  avg # of iterations =  1.0

     negative rho (up, down):  4.607E-04 0.000E+00

     total cpu time spent up to now is       71.4 secs

     total energy              =   -1103.83323482 Ry
     Harris-Foulkes estimate   =   -1103.83329903 Ry
     estimated scf accuracy    <       0.00012637 Ry

     iteration # 18     ecut=    80.00 Ry     beta= 0.40
     Davidson diagonalization with overlap
     ethr =  7.00E-07,  avg # of iterations =  2.1

     negative rho (up, down):  4.739E-04 0.000E+00

     total cpu time spent up to now is       74.8 secs

     total energy              =   -1103.83326765 Ry
     Harris-Foulkes estimate   =   -1103.83327360 Ry
     estimated scf accuracy    <       0.00001387 Ry

     iteration # 19     ecut=    80.00 Ry     beta= 0.40
     Davidson diagonalization with overlap
     ethr =  1.54E-07,  avg # of iterations =  2.3

     negative rho (up, down):  4.847E-04 0.000E+00

     total cpu time spent up to now is       78.1 secs

     total energy              =   -1103.83327173 Ry
     Harris-Foulkes estimate   =   -1103.83327138 Ry
     estimated scf accuracy    <       0.00000008 Ry

     iteration # 20     ecut=    80.00 Ry     beta= 0.40
     Davidson diagonalization with overlap
     ethr =  9.08E-10,  avg # of iterations =  4.9

     negative rho (up, down):  5.084E-04 0.000E+00

     total cpu time spent up to now is       83.9 secs

     total energy              =   -1103.83327144 Ry
     Harris-Foulkes estimate   =   -1103.83327293 Ry
     estimated scf accuracy    <       0.00000501 Ry

     iteration # 21     ecut=    80.00 Ry     beta= 0.40
     Davidson diagonalization with overlap
     ethr =  9.08E-10,  avg # of iterations =  3.0

     negative rho (up, down):  5.082E-04 0.000E+00

     total cpu time spent up to now is       88.1 secs

     total energy              =   -1103.83327174 Ry
     Harris-Foulkes estimate   =   -1103.83327188 Ry
     estimated scf accuracy    <       0.00000051 Ry

     iteration # 22     ecut=    80.00 Ry     beta= 0.40
     Davidson diagonalization with overlap
     ethr =  9.08E-10,  avg # of iterations =  1.0

     negative rho (up, down):  5.074E-04 0.000E+00

     total cpu time spent up to now is       91.1 secs

     total energy              =   -1103.83327170 Ry
     Harris-Foulkes estimate   =   -1103.83327176 Ry
     estimated scf accuracy    <       0.00000011 Ry

     iteration # 23     ecut=    80.00 Ry     beta= 0.40
     Davidson diagonalization with overlap
     ethr =  9.08E-10,  avg # of iterations =  1.0

     negative rho (up, down):  5.061E-04 0.000E+00

     total cpu time spent up to now is       94.1 secs

     total energy              =   -1103.83327173 Ry
     Harris-Foulkes estimate   =   -1103.83327173 Ry
     estimated scf accuracy    <          5.0E-09 Ry

     iteration # 24     ecut=    80.00 Ry     beta= 0.40
     Davidson diagonalization with overlap
     ethr =  5.56E-11,  avg # of iterations =  3.3

     negative rho (up, down):  5.070E-04 0.000E+00

     total cpu time spent up to now is       98.2 secs

     End of self-consistent calculation

     Number of k-points >= 100: set verbosity='high' to print the bands.

     the Fermi energy is  -929.4848 ev

!    total energy              =   -1103.83327173 Ry
     Harris-Foulkes estimate   =   -1103.83327173 Ry
     estimated scf accuracy    <          2.4E-10 Ry

     total all-electron energy =    -16558.919048 Ry

     The total energy is the sum of the following terms:

     one-electron contribution =    -670.01325719 Ry
     hartree contribution      =      35.89083634 Ry
     xc contribution           =     -27.69881451 Ry
     ewald contribution        =     -57.49233878 Ry
     one-center paw contrib.   =    -384.51129142 Ry
     smearing contrib. (-TS)   =      -0.00840616 Ry

     convergence has been achieved in  24 iterations

     negative rho (up, down):  5.070E-04 0.000E+00

     Forces acting on atoms (cartesian axes, Ry/au):

     atom    1 type  1   force =    -0.00000000   -0.00000000    0.00000000
     atom    2 type  2   force =     0.00000000    0.00000000    0.00000000
     atom    3 type  3   force =     0.00000000    0.00000000    0.00000000

     Total force =     0.000000     Total SCF correction =     0.000000


     Computing stress (Cartesian axis) and pressure


     negative rho (up, down):  5.070E-04 0.000E+00
          total   stress  (Ry/bohr**3)                   (kbar)     P=********
  -1.18469039   0.00000000   0.00000000    -174273.94      0.00      0.00
   0.00000000  -1.18469039  -0.00000000          0.00-174273.94     -0.00
   0.00000000  -0.00000000  -1.18469039          0.00     -0.00-174273.94


     init_run     :      1.56s CPU      2.50s WALL (       1 calls)
     electrons    :     56.25s CPU     93.08s WALL (       1 calls)
     forces       :      0.31s CPU      0.52s WALL (       1 calls)
     stress       :      0.90s CPU      1.38s WALL (       1 calls)

     Called by init_run:
     wfcinit      :      1.14s CPU      1.71s WALL (       1 calls)
     potinit      :      0.08s CPU      0.22s WALL (       1 calls)
     hinit0       :      0.29s CPU      0.49s WALL (       1 calls)

     Called by electrons:
     c_bands      :     46.05s CPU     74.78s WALL (      24 calls)
     sum_band     :      7.97s CPU     13.32s WALL (      24 calls)
     v_of_rho     :      0.24s CPU      0.47s WALL (      25 calls)
     newd         :      0.64s CPU      0.91s WALL (      25 calls)
     PAW_pot      :      1.35s CPU      3.65s WALL (      25 calls)
     mix_rho      :      0.06s CPU      0.11s WALL (      24 calls)

     Called by c_bands:
     init_us_2    :      1.24s CPU      1.61s WALL (    5610 calls)
     cegterg      :     43.36s CPU     70.53s WALL (    2640 calls)

     Called by sum_band:
     sum_band:bec :      0.03s CPU      0.04s WALL (    2640 calls)
     addusdens    :      0.50s CPU      0.57s WALL (      24 calls)

     Called by *egterg:
     h_psi        :     34.38s CPU     56.52s WALL (    9865 calls)
     s_psi        :      1.47s CPU      1.93s WALL (    9865 calls)
     g_psi        :      0.07s CPU      0.10s WALL (    7115 calls)
     cdiaghg      :      1.43s CPU      2.06s WALL (    9755 calls)

     Called by h_psi:
     h_psi:pot    :     34.25s CPU     56.34s WALL (    9865 calls)
     h_psi:calbec :      3.35s CPU      6.09s WALL (    9865 calls)
     vloc_psi     :     29.30s CPU     48.12s WALL (    9865 calls)
     add_vuspsi   :      1.57s CPU      2.09s WALL (    9865 calls)

     General routines
     calbec       :      4.83s CPU      8.95s WALL (   13055 calls)
     fft          :      0.19s CPU      0.53s WALL (     301 calls)
     ffts         :      0.01s CPU      0.02s WALL (      24 calls)
     fftw         :     32.42s CPU     54.36s WALL (  149114 calls)

     Parallel routines
     fft_scatt_xy :      2.36s CPU      3.13s WALL (  149439 calls)
     fft_scatt_yz :     17.71s CPU     35.20s WALL (  149439 calls)

     PWSCF        :  1m 0.95s CPU     1m40.10s WALL


   This run was terminated on:   7:36:28  24Oct2018            

=------------------------------------------------------------------------------=
   JOB DONE.
=------------------------------------------------------------------------------=
