
     Program PWSCF v.6.3MaX starts on 24Oct2018 at 12:33:31 

     This program is part of the open-source Quantum ESPRESSO suite
     for quantum simulation of materials; please cite
         "P. Giannozzi et al., J. Phys.:Condens. Matter 21 395502 (2009);
         "P. Giannozzi et al., J. Phys.:Condens. Matter 29 465901 (2017);
          URL http://www.quantum-espresso.org", 
     in publications or presentations arising from this work. More details at
     http://www.quantum-espresso.org/quote

     Parallel version (MPI), running on     8 processors

     MPI processes distributed on     1 nodes
     R & G space division:  proc/nbgrp/npool/nimage =       8
     Waiting for input...
     Reading input from standard input
Warning: card &CELL ignored
Warning: card                CELL_DYNAMICS = 'BFGS' , ignored
Warning: card / ignored

     Current dimensions of program PWSCF are:
     Max number of different atomic species (ntypx) = 10
     Max number of k-points (npk) =  40000
     Max angular momentum in pseudopotentials (lmaxx) =  3
     Message from routine iosys:
     minimal I/O required, wf_collect reset to FALSE
               file N.pbe-n-kjpaw_psl.1.0.0.UPF: wavefunction(s)  2S renormalized
               file Na.pbe-spnl-kjpaw_psl.1.0.0.UPF: wavefunction(s)  2P renormalized

     Subspace diagonalization in iterative solution of the eigenvalue problem:
     a serial algorithm will be used


     Parallelization info
     --------------------
     sticks:   dense  smooth     PW     G-vecs:    dense   smooth      PW
     Min          52      52     18                  719      719     142
     Max          53      53     20                  723      723     143
     Sum         421     421    151                 5769     5769    1139



     bravais-lattice index     =            2
     lattice parameter (alat)  =       6.2000  a.u.
     unit-cell volume          =      59.5820 (a.u.)^3
     number of atoms/cell      =            3
     number of atomic types    =            3
     number of electrons       =         9.00
     number of Kohn-Sham states=            9
     kinetic-energy cutoff     =      80.0000  Ry
     charge density cutoff     =     320.0000  Ry
     convergence threshold     =      1.0E-09
     mixing beta               =       0.4000
     number of iterations used =            8  plain     mixing
     Exchange-correlation      = SLA PW PBX PBC ( 1  4  3  4 0 0)

     celldm(1)=   6.200000  celldm(2)=   0.000000  celldm(3)=   0.000000
     celldm(4)=   0.000000  celldm(5)=   0.000000  celldm(6)=   0.000000

     crystal axes: (cart. coord. in units of alat)
               a(1) = (  -0.500000   0.000000   0.500000 )  
               a(2) = (   0.000000   0.500000   0.500000 )  
               a(3) = (  -0.500000   0.500000   0.000000 )  

     reciprocal axes: (cart. coord. in units 2 pi/alat)
               b(1) = ( -1.000000 -1.000000  1.000000 )  
               b(2) = (  1.000000  1.000000  1.000000 )  
               b(3) = ( -1.000000  1.000000 -1.000000 )  


     PseudoPot. # 1 for N  read from file:
     ./ps/N.pbe-n-kjpaw_psl.1.0.0.UPF
     MD5 check sum: 200139db3989ad6e773ddd42f12fc3a8
     Pseudo is Projector augmented-wave + core cor, Zval =  5.0
     Generated using "atomic" code by A. Dal Corso v.6.3
     Shape of augmentation charge: PSQ
     Using radial grid of 1085 points,  4 beta functions with: 
                l(1) =   0
                l(2) =   0
                l(3) =   1
                l(4) =   1
     Q(r) pseudized with 0 coefficients 


     PseudoPot. # 2 for Na read from file:
     ./ps/Na.pbe-spnl-kjpaw_psl.1.0.0.UPF
     MD5 check sum: 09e782c158f17eb2240230c4112357ee
     Pseudo is Projector augmented-wave + core cor, Zval =  9.0
     Generated using "atomic" code by A. Dal Corso v.6.3
     Shape of augmentation charge: PSQ
     Using radial grid of 1121 points,  4 beta functions with: 
                l(1) =   0
                l(2) =   0
                l(3) =   1
                l(4) =   1
     Q(r) pseudized with 0 coefficients 


     PseudoPot. # 3 for Cs read from file:
     ./ps/Cs.pbe-spnl-kjpaw_psl.1.0.0.UPF
     MD5 check sum: f98336d4a4407e24c1ab1e3bc36275e8
     Pseudo is Projector augmented-wave + core cor, Zval = -5.0
     Generated using "atomic" code by A. Dal Corso v.6.2.2
     Shape of augmentation charge: PSQ
     Using radial grid of 1251 points,  6 beta functions with: 
                l(1) =   0
                l(2) =   0
                l(3) =   1
                l(4) =   1
                l(5) =   2
                l(6) =   2
     Q(r) pseudized with 0 coefficients 


     atomic species   valence    mass     pseudopotential
        N              5.00    14.00670     N ( 1.00)
        Na             9.00    22.98977     Na( 1.00)
        Cs            -5.00   132.90545     Cs( 1.00)

     24 Sym. Ops. (no inversion) found



   Cartesian axes

     site n.     atom                  positions (alat units)
         1           N   tau(   1) = (   0.0000000   0.0000000   0.0000000  )
         2           Na  tau(   2) = (  -0.2500000   0.2500000   0.2500000  )
         3           Cs  tau(   3) = (  -0.7500000   0.7500000   0.7500000  )

     number of k points=   110  Methfessel-Paxton smearing, width (Ry)=  0.0200

     Number of k-points >= 100: set verbosity='high' to print them.

     Dense  grid:     5769 G-vectors     FFT dimensions: (  25,  25,  25)

     Estimated max dynamical RAM per process >       8.39 MB

     Estimated total dynamical RAM >      67.15 MB

     Initial potential from superposition of free atoms

     starting charge   22.95298, renormalised to    9.00000
     Starting wfcs are   14 randomized atomic wfcs
     Checking if some PAW data can be deallocated... 

     total cpu time spent up to now is        4.2 secs

     Self-consistent Calculation

     iteration #  1     ecut=    80.00 Ry     beta= 0.40
     Davidson diagonalization with overlap
     ethr =  1.00E-02,  avg # of iterations =  5.5

     negative rho (up, down):  2.710E-05 0.000E+00

     total cpu time spent up to now is        6.0 secs

     total energy              =   -3123.92361667 Ry
     Harris-Foulkes estimate   =   -3139.01577854 Ry
     estimated scf accuracy    <      27.43385671 Ry

     iteration #  2     ecut=    80.00 Ry     beta= 0.40
     Davidson diagonalization with overlap
     ethr =  1.00E-02,  avg # of iterations =  2.0

     negative rho (up, down):  2.175E-03 0.000E+00

     total cpu time spent up to now is        7.1 secs

     total energy              =   -3124.34613742 Ry
     Harris-Foulkes estimate   =   -3125.47940029 Ry
     estimated scf accuracy    <       2.26504548 Ry

     iteration #  3     ecut=    80.00 Ry     beta= 0.40
     Davidson diagonalization with overlap
     ethr =  1.00E-02,  avg # of iterations =  1.0

     negative rho (up, down):  8.104E-02 0.000E+00

     total cpu time spent up to now is        7.9 secs

     total energy              =   -3122.15625051 Ry
     Harris-Foulkes estimate   =   -3124.58879798 Ry
     estimated scf accuracy    <       3.35605237 Ry

     iteration #  4     ecut=    80.00 Ry     beta= 0.40
     Davidson diagonalization with overlap
     ethr =  1.00E-02,  avg # of iterations =  2.0

     negative rho (up, down):  2.806E-01 0.000E+00

     total cpu time spent up to now is        9.0 secs

     total energy              =   -3124.95275069 Ry
     Harris-Foulkes estimate   =   -3128.75616457 Ry
     estimated scf accuracy    <      12.13751077 Ry

     iteration #  5     ecut=    80.00 Ry     beta= 0.40
     Davidson diagonalization with overlap
     ethr =  1.00E-02,  avg # of iterations =  2.0

     negative rho (up, down):  2.774E-01 0.000E+00

     total cpu time spent up to now is       10.0 secs

     total energy              =   -3125.01175095 Ry
     Harris-Foulkes estimate   =   -3125.23170833 Ry
     estimated scf accuracy    <       5.18722242 Ry

     iteration #  6     ecut=    80.00 Ry     beta= 0.40
     Davidson diagonalization with overlap
     ethr =  1.00E-02,  avg # of iterations =  1.0

     negative rho (up, down):  2.982E-01 0.000E+00

     total cpu time spent up to now is       10.8 secs

     total energy              =   -3124.92910429 Ry
     Harris-Foulkes estimate   =   -3125.01869767 Ry
     estimated scf accuracy    <       4.47398382 Ry

     iteration #  7     ecut=    80.00 Ry     beta= 0.40
     Davidson diagonalization with overlap
     ethr =  1.00E-02,  avg # of iterations =  1.0

     negative rho (up, down):  3.274E-01 0.000E+00

     total cpu time spent up to now is       11.7 secs

     total energy              =   -3123.28292013 Ry
     Harris-Foulkes estimate   =   -3124.93123937 Ry
     estimated scf accuracy    <       4.15063801 Ry

     iteration #  8     ecut=    80.00 Ry     beta= 0.40
     Davidson diagonalization with overlap
     ethr =  1.00E-02,  avg # of iterations =  1.0

     negative rho (up, down):  3.424E-01 0.000E+00

     total cpu time spent up to now is       12.5 secs

     total energy              =   -3124.53901560 Ry
     Harris-Foulkes estimate   =   -3124.30188472 Ry
     estimated scf accuracy    <       3.03075918 Ry

     iteration #  9     ecut=    80.00 Ry     beta= 0.40
     Davidson diagonalization with overlap
     ethr =  1.00E-02,  avg # of iterations =  1.0

     negative rho (up, down):  3.202E-01 0.000E+00

     total cpu time spent up to now is       13.3 secs

     total energy              =   -3124.72741173 Ry
     Harris-Foulkes estimate   =   -3124.61224852 Ry
     estimated scf accuracy    <       8.01663415 Ry

     iteration # 10     ecut=    80.00 Ry     beta= 0.40
     Davidson diagonalization with overlap
     ethr =  1.00E-02,  avg # of iterations =  1.1

     negative rho (up, down):  3.195E-01 0.000E+00

     total cpu time spent up to now is       14.3 secs

     total energy              =   -3124.89983185 Ry
     Harris-Foulkes estimate   =   -3124.73546762 Ry
     estimated scf accuracy    <       9.77271137 Ry

     iteration # 11     ecut=    80.00 Ry     beta= 0.40
     Davidson diagonalization with overlap
     ethr =  1.00E-02,  avg # of iterations =  1.3

     negative rho (up, down):  3.140E-01 0.000E+00

     total cpu time spent up to now is       15.1 secs

     total energy              =   -3124.05578611 Ry
     Harris-Foulkes estimate   =   -3124.90898337 Ry
     estimated scf accuracy    <      11.82358683 Ry

     iteration # 12     ecut=    80.00 Ry     beta= 0.40
     Davidson diagonalization with overlap
     ethr =  1.00E-02,  avg # of iterations =  1.1

     negative rho (up, down):  3.069E-01 0.000E+00

     total cpu time spent up to now is       16.1 secs

     total energy              =   -3124.06762543 Ry
     Harris-Foulkes estimate   =   -3124.26236496 Ry
     estimated scf accuracy    <       2.32776827 Ry

     iteration # 13     ecut=    80.00 Ry     beta= 0.40
     Davidson diagonalization with overlap
     ethr =  1.00E-02,  avg # of iterations =  1.2

     negative rho (up, down):  2.994E-01 0.000E+00

     total cpu time spent up to now is       17.0 secs

     total energy              =   -3124.08700650 Ry
     Harris-Foulkes estimate   =   -3124.13138293 Ry
     estimated scf accuracy    <       0.27991908 Ry

     iteration # 14     ecut=    80.00 Ry     beta= 0.40
     Davidson diagonalization with overlap
     ethr =  3.11E-03,  avg # of iterations =  1.9

     negative rho (up, down):  2.837E-01 0.000E+00

     total cpu time spent up to now is       17.9 secs

     total energy              =   -3124.12852323 Ry
     Harris-Foulkes estimate   =   -3124.10984283 Ry
     estimated scf accuracy    <       0.00131435 Ry

     iteration # 15     ecut=    80.00 Ry     beta= 0.40
     Davidson diagonalization with overlap
     ethr =  1.46E-05,  avg # of iterations =  4.0

     negative rho (up, down):  2.936E-01 0.000E+00

     total cpu time spent up to now is       19.4 secs

     total energy              =   -3124.20335767 Ry
     Harris-Foulkes estimate   =   -3124.23435766 Ry
     estimated scf accuracy    <       0.84509484 Ry

     iteration # 16     ecut=    80.00 Ry     beta= 0.40
     Davidson diagonalization with overlap
     ethr =  1.46E-05,  avg # of iterations =  1.1

     negative rho (up, down):  3.051E-01 0.000E+00

     total cpu time spent up to now is       20.2 secs

     total energy              =   -3124.16454508 Ry
     Harris-Foulkes estimate   =   -3124.20464009 Ry
     estimated scf accuracy    <       0.67483246 Ry

     iteration # 17     ecut=    80.00 Ry     beta= 0.40
     Davidson diagonalization with overlap
     ethr =  1.46E-05,  avg # of iterations =  2.0

     negative rho (up, down):  3.004E-01 0.000E+00

     total cpu time spent up to now is       21.2 secs

     total energy              =   -3124.15791295 Ry
     Harris-Foulkes estimate   =   -3124.16768702 Ry
     estimated scf accuracy    <       0.44030988 Ry

     iteration # 18     ecut=    80.00 Ry     beta= 0.40
     Davidson diagonalization with overlap
     ethr =  1.46E-05,  avg # of iterations =  1.0

     negative rho (up, down):  2.941E-01 0.000E+00

     total cpu time spent up to now is       22.0 secs

     total energy              =   -3124.19563746 Ry
     Harris-Foulkes estimate   =   -3124.15833547 Ry
     estimated scf accuracy    <       0.36885538 Ry

     iteration # 19     ecut=    80.00 Ry     beta= 0.40
     Davidson diagonalization with overlap
     ethr =  1.46E-05,  avg # of iterations =  2.0

     negative rho (up, down):  2.885E-01 0.000E+00

     total cpu time spent up to now is       23.0 secs

     total energy              =   -3124.17773689 Ry
     Harris-Foulkes estimate   =   -3124.20048305 Ry
     estimated scf accuracy    <       0.64638441 Ry

     iteration # 20     ecut=    80.00 Ry     beta= 0.40
     Davidson diagonalization with overlap
     ethr =  1.46E-05,  avg # of iterations =  1.0

     negative rho (up, down):  2.939E-01 0.000E+00

     total cpu time spent up to now is       23.9 secs

     total energy              =   -3124.16461857 Ry
     Harris-Foulkes estimate   =   -3124.17890884 Ry
     estimated scf accuracy    <       0.50125990 Ry

     iteration # 21     ecut=    80.00 Ry     beta= 0.40
     Davidson diagonalization with overlap
     ethr =  1.46E-05,  avg # of iterations =  2.0

     negative rho (up, down):  2.960E-01 0.000E+00

     total cpu time spent up to now is       24.9 secs

     total energy              =   -3124.12364529 Ry
     Harris-Foulkes estimate   =   -3124.16509669 Ry
     estimated scf accuracy    <       0.42583859 Ry

     iteration # 22     ecut=    80.00 Ry     beta= 0.40
     Davidson diagonalization with overlap
     ethr =  1.46E-05,  avg # of iterations =  2.0

     negative rho (up, down):  3.078E-01 0.000E+00

     total cpu time spent up to now is       25.9 secs

     total energy              =   -3124.09276783 Ry
     Harris-Foulkes estimate   =   -3124.13003074 Ry
     estimated scf accuracy    <       0.16765438 Ry

     iteration # 23     ecut=    80.00 Ry     beta= 0.40
     Davidson diagonalization with overlap
     ethr =  1.46E-05,  avg # of iterations =  2.5

     negative rho (up, down):  3.090E-01 0.000E+00

     total cpu time spent up to now is       27.1 secs

     total energy              =   -3124.11002192 Ry
     Harris-Foulkes estimate   =   -3124.11053552 Ry
     estimated scf accuracy    <       0.00127165 Ry

     iteration # 24     ecut=    80.00 Ry     beta= 0.40
     Davidson diagonalization with overlap
     ethr =  1.41E-05,  avg # of iterations =  1.0

     negative rho (up, down):  3.095E-01 0.000E+00

     total cpu time spent up to now is       27.9 secs

     total energy              =   -3124.11011528 Ry
     Harris-Foulkes estimate   =   -3124.11069065 Ry
     estimated scf accuracy    <       0.00271157 Ry

     iteration # 25     ecut=    80.00 Ry     beta= 0.40
     Davidson diagonalization with overlap
     ethr =  1.41E-05,  avg # of iterations =  1.0

     negative rho (up, down):  3.097E-01 0.000E+00

     total cpu time spent up to now is       28.8 secs

     total energy              =   -3124.11043118 Ry
     Harris-Foulkes estimate   =   -3124.11043000 Ry
     estimated scf accuracy    <       0.00006833 Ry

     iteration # 26     ecut=    80.00 Ry     beta= 0.40
     Davidson diagonalization with overlap
     ethr =  7.59E-07,  avg # of iterations =  1.0

     negative rho (up, down):  3.097E-01 0.000E+00

     total cpu time spent up to now is       29.6 secs

     total energy              =   -3124.11042140 Ry
     Harris-Foulkes estimate   =   -3124.11043187 Ry
     estimated scf accuracy    <       0.00007865 Ry

     iteration # 27     ecut=    80.00 Ry     beta= 0.40
     Davidson diagonalization with overlap
     ethr =  7.59E-07,  avg # of iterations =  1.0

     negative rho (up, down):  3.096E-01 0.000E+00

     total cpu time spent up to now is       30.5 secs

     total energy              =   -3124.11042461 Ry
     Harris-Foulkes estimate   =   -3124.11042487 Ry
     estimated scf accuracy    <       0.00000701 Ry

     iteration # 28     ecut=    80.00 Ry     beta= 0.40
     Davidson diagonalization with overlap
     ethr =  7.79E-08,  avg # of iterations =  1.0

     negative rho (up, down):  3.095E-01 0.000E+00

     total cpu time spent up to now is       31.3 secs

     total energy              =   -3124.11042351 Ry
     Harris-Foulkes estimate   =   -3124.11042467 Ry
     estimated scf accuracy    <       0.00000473 Ry

     iteration # 29     ecut=    80.00 Ry     beta= 0.40
     Davidson diagonalization with overlap
     ethr =  5.25E-08,  avg # of iterations =  1.0

     negative rho (up, down):  3.096E-01 0.000E+00

     total cpu time spent up to now is       32.3 secs

     total energy              =   -3124.11042419 Ry
     Harris-Foulkes estimate   =   -3124.11042427 Ry
     estimated scf accuracy    <       0.00000051 Ry

     iteration # 30     ecut=    80.00 Ry     beta= 0.40
     Davidson diagonalization with overlap
     ethr =  5.70E-09,  avg # of iterations =  1.0

     negative rho (up, down):  3.096E-01 0.000E+00

     total cpu time spent up to now is       33.1 secs

     total energy              =   -3124.11042420 Ry
     Harris-Foulkes estimate   =   -3124.11042420 Ry
     estimated scf accuracy    <       0.00000001 Ry

     iteration # 31     ecut=    80.00 Ry     beta= 0.40
     Davidson diagonalization with overlap
     ethr =  1.42E-10,  avg # of iterations =  2.1

     negative rho (up, down):  3.095E-01 0.000E+00

     total cpu time spent up to now is       34.1 secs

     total energy              =   -3124.11042420 Ry
     Harris-Foulkes estimate   =   -3124.11042420 Ry
     estimated scf accuracy    <          1.2E-09 Ry

     iteration # 32     ecut=    80.00 Ry     beta= 0.40
     Davidson diagonalization with overlap
     ethr =  1.36E-11,  avg # of iterations =  2.5

     negative rho (up, down):  3.095E-01 0.000E+00

     total cpu time spent up to now is       35.0 secs

     End of self-consistent calculation

     Number of k-points >= 100: set verbosity='high' to print the bands.

     the Fermi energy is -3953.9075 ev

!    total energy              =   -3124.11042419 Ry
     Harris-Foulkes estimate   =   -3124.11042420 Ry
     estimated scf accuracy    <          1.4E-10 Ry

     total all-electron energy =    -18579.196200 Ry

     The total energy is the sum of the following terms:

     one-electron contribution =   -2648.58918788 Ry
     hartree contribution      =      25.21190838 Ry
     xc contribution           =     -29.87806980 Ry
     ewald contribution        =     -86.22877596 Ry
     one-center paw contrib.   =    -384.62627181 Ry
     smearing contrib. (-TS)   =      -0.00002712 Ry

     convergence has been achieved in  32 iterations

     negative rho (up, down):  3.095E-01 0.000E+00

     Forces acting on atoms (cartesian axes, Ry/au):

     atom    1 type  1   force =     0.00000000    0.00000000    0.00000000
     atom    2 type  2   force =     0.00000000    0.00000000   -0.00000000
     atom    3 type  3   force =     0.00000000    0.00000000    0.00000000

     Total force =     0.000000     Total SCF correction =     0.000000


     Computing stress (Cartesian axis) and pressure


     negative rho (up, down):  3.095E-01 0.000E+00
          total   stress  (Ry/bohr**3)                   (kbar)     P=********
 -47.34924644   0.00000000   0.00000000    **********      0.00      0.00
   0.00000000 -47.34924644  -0.00000000          0.00**********     -0.00
   0.00000000  -0.00000000 -47.34924644          0.00     -0.00**********


     init_run     :      0.43s CPU      1.10s WALL (       1 calls)
     electrons    :     14.34s CPU     30.80s WALL (       1 calls)
     forces       :      0.07s CPU      0.17s WALL (       1 calls)
     stress       :      0.21s CPU      0.39s WALL (       1 calls)

     Called by init_run:
     wfcinit      :      0.23s CPU      0.43s WALL (       1 calls)
     potinit      :      0.04s CPU      0.26s WALL (       1 calls)
     hinit0       :      0.14s CPU      0.37s WALL (       1 calls)

     Called by electrons:
     c_bands      :     10.87s CPU     20.77s WALL (      32 calls)
     sum_band     :      1.93s CPU      3.98s WALL (      32 calls)
     v_of_rho     :      0.05s CPU      0.10s WALL (      33 calls)
     newd         :      0.14s CPU      0.27s WALL (      33 calls)
     PAW_pot      :      1.36s CPU      5.83s WALL (      33 calls)
     mix_rho      :      0.02s CPU      0.05s WALL (      32 calls)

     Called by c_bands:
     init_us_2    :      0.41s CPU      0.50s WALL (    7370 calls)
     cegterg      :     10.08s CPU     19.23s WALL (    3520 calls)

     Called by sum_band:
     sum_band:bec :      0.03s CPU      0.04s WALL (    3520 calls)
     addusdens    :      0.11s CPU      0.12s WALL (      32 calls)

     Called by *egterg:
     h_psi        :      6.98s CPU     13.68s WALL (    9395 calls)
     s_psi        :      0.49s CPU      0.62s WALL (    9395 calls)
     g_psi        :      0.02s CPU      0.03s WALL (    5765 calls)
     cdiaghg      :      1.02s CPU      1.80s WALL (    9285 calls)

     Called by h_psi:
     h_psi:pot    :      6.96s CPU     13.65s WALL (    9395 calls)
     h_psi:calbec :      0.91s CPU      2.28s WALL (    9395 calls)
     vloc_psi     :      5.52s CPU     10.70s WALL (    9395 calls)
     add_vuspsi   :      0.51s CPU      0.64s WALL (    9395 calls)

     General routines
     calbec       :      1.32s CPU      3.38s WALL (   13465 calls)
     fft          :      0.04s CPU      0.20s WALL (     389 calls)
     ffts         :      0.00s CPU      0.00s WALL (      32 calls)
     fftw         :      6.10s CPU     12.48s WALL (  176978 calls)

     Parallel routines
     fft_scatt_xy :      0.66s CPU      0.83s WALL (  177399 calls)
     fft_scatt_yz :      3.06s CPU      8.81s WALL (  177399 calls)

     PWSCF        :    16.76s CPU        35.58s WALL


   This run was terminated on:  12:34: 7  24Oct2018            

=------------------------------------------------------------------------------=
   JOB DONE.
=------------------------------------------------------------------------------=
