
     Program PWSCF v.6.3MaX starts on 24Oct2018 at 12:21: 8 

     This program is part of the open-source Quantum ESPRESSO suite
     for quantum simulation of materials; please cite
         "P. Giannozzi et al., J. Phys.:Condens. Matter 21 395502 (2009);
         "P. Giannozzi et al., J. Phys.:Condens. Matter 29 465901 (2017);
          URL http://www.quantum-espresso.org", 
     in publications or presentations arising from this work. More details at
     http://www.quantum-espresso.org/quote

     Parallel version (MPI), running on     8 processors

     MPI processes distributed on     1 nodes
     R & G space division:  proc/nbgrp/npool/nimage =       8
     Waiting for input...
     Reading input from standard input
Warning: card &CELL ignored
Warning: card                CELL_DYNAMICS = 'BFGS' , ignored
Warning: card / ignored

     Current dimensions of program PWSCF are:
     Max number of different atomic species (ntypx) = 10
     Max number of k-points (npk) =  40000
     Max angular momentum in pseudopotentials (lmaxx) =  3
     Message from routine iosys:
     minimal I/O required, wf_collect reset to FALSE
               file N.pbe-n-kjpaw_psl.1.0.0.UPF: wavefunction(s)  2S renormalized
               file Na.pbe-spnl-kjpaw_psl.1.0.0.UPF: wavefunction(s)  2P renormalized

     Subspace diagonalization in iterative solution of the eigenvalue problem:
     a serial algorithm will be used


     Parallelization info
     --------------------
     sticks:   dense  smooth     PW     G-vecs:    dense   smooth      PW
     Min         133     133     39                 2924     2924     479
     Max         134     134     40                 2928     2928     484
     Sum        1069    1069    313                23409    23409    3839



     bravais-lattice index     =            2
     lattice parameter (alat)  =       9.9000  a.u.
     unit-cell volume          =     242.5748 (a.u.)^3
     number of atoms/cell      =            3
     number of atomic types    =            3
     number of electrons       =         9.00
     number of Kohn-Sham states=            9
     kinetic-energy cutoff     =      80.0000  Ry
     charge density cutoff     =     320.0000  Ry
     convergence threshold     =      1.0E-09
     mixing beta               =       0.4000
     number of iterations used =            8  plain     mixing
     Exchange-correlation      = SLA PW PBX PBC ( 1  4  3  4 0 0)

     celldm(1)=   9.900000  celldm(2)=   0.000000  celldm(3)=   0.000000
     celldm(4)=   0.000000  celldm(5)=   0.000000  celldm(6)=   0.000000

     crystal axes: (cart. coord. in units of alat)
               a(1) = (  -0.500000   0.000000   0.500000 )  
               a(2) = (   0.000000   0.500000   0.500000 )  
               a(3) = (  -0.500000   0.500000   0.000000 )  

     reciprocal axes: (cart. coord. in units 2 pi/alat)
               b(1) = ( -1.000000 -1.000000  1.000000 )  
               b(2) = (  1.000000  1.000000  1.000000 )  
               b(3) = ( -1.000000  1.000000 -1.000000 )  


     PseudoPot. # 1 for N  read from file:
     ./ps/N.pbe-n-kjpaw_psl.1.0.0.UPF
     MD5 check sum: 200139db3989ad6e773ddd42f12fc3a8
     Pseudo is Projector augmented-wave + core cor, Zval =  5.0
     Generated using "atomic" code by A. Dal Corso v.6.3
     Shape of augmentation charge: PSQ
     Using radial grid of 1085 points,  4 beta functions with: 
                l(1) =   0
                l(2) =   0
                l(3) =   1
                l(4) =   1
     Q(r) pseudized with 0 coefficients 


     PseudoPot. # 2 for Na read from file:
     ./ps/Na.pbe-spnl-kjpaw_psl.1.0.0.UPF
     MD5 check sum: 09e782c158f17eb2240230c4112357ee
     Pseudo is Projector augmented-wave + core cor, Zval =  9.0
     Generated using "atomic" code by A. Dal Corso v.6.3
     Shape of augmentation charge: PSQ
     Using radial grid of 1121 points,  4 beta functions with: 
                l(1) =   0
                l(2) =   0
                l(3) =   1
                l(4) =   1
     Q(r) pseudized with 0 coefficients 


     PseudoPot. # 3 for Cs read from file:
     ./ps/Cs.pbe-spnl-kjpaw_psl.1.0.0.UPF
     MD5 check sum: f98336d4a4407e24c1ab1e3bc36275e8
     Pseudo is Projector augmented-wave + core cor, Zval = -5.0
     Generated using "atomic" code by A. Dal Corso v.6.2.2
     Shape of augmentation charge: PSQ
     Using radial grid of 1251 points,  6 beta functions with: 
                l(1) =   0
                l(2) =   0
                l(3) =   1
                l(4) =   1
                l(5) =   2
                l(6) =   2
     Q(r) pseudized with 0 coefficients 


     atomic species   valence    mass     pseudopotential
        N              5.00    14.00670     N ( 1.00)
        Na             9.00    22.98977     Na( 1.00)
        Cs            -5.00   132.90545     Cs( 1.00)

     24 Sym. Ops. (no inversion) found



   Cartesian axes

     site n.     atom                  positions (alat units)
         1           N   tau(   1) = (   0.0000000   0.0000000   0.0000000  )
         2           Na  tau(   2) = (  -0.2500000   0.2500000   0.2500000  )
         3           Cs  tau(   3) = (  -0.7500000   0.7500000   0.7500000  )

     number of k points=   110  Methfessel-Paxton smearing, width (Ry)=  0.0200

     Number of k-points >= 100: set verbosity='high' to print them.

     Dense  grid:    23409 G-vectors     FFT dimensions: (  40,  40,  40)

     Estimated max dynamical RAM per process >      23.48 MB

     Estimated total dynamical RAM >     187.81 MB

     Check: negative/imaginary core charge=   -0.000002    0.000000

     Initial potential from superposition of free atoms

     starting charge   22.95298, renormalised to    9.00000
     Starting wfcs are   14 randomized atomic wfcs
     Checking if some PAW data can be deallocated... 

     total cpu time spent up to now is        5.2 secs

     Self-consistent Calculation

     iteration #  1     ecut=    80.00 Ry     beta= 0.40
     Davidson diagonalization with overlap
     ethr =  1.00E-02,  avg # of iterations =  9.1

     total cpu time spent up to now is       12.1 secs

     total energy              =   -1104.49223806 Ry
     Harris-Foulkes estimate   =   -1109.29371235 Ry
     estimated scf accuracy    <      10.82584189 Ry

     iteration #  2     ecut=    80.00 Ry     beta= 0.40
     Davidson diagonalization with overlap
     ethr =  1.00E-02,  avg # of iterations =  6.1

     total cpu time spent up to now is       16.9 secs

     total energy              =   -1105.44473318 Ry
     Harris-Foulkes estimate   =   -1106.05324717 Ry
     estimated scf accuracy    <       1.08957126 Ry

     iteration #  3     ecut=    80.00 Ry     beta= 0.40
     Davidson diagonalization with overlap
     ethr =  1.00E-02,  avg # of iterations =  1.1

     negative rho (up, down):  8.654E-05 0.000E+00

     total cpu time spent up to now is       19.3 secs

     total energy              =   -1105.36502048 Ry
     Harris-Foulkes estimate   =   -1105.50224571 Ry
     estimated scf accuracy    <       0.18050827 Ry

     iteration #  4     ecut=    80.00 Ry     beta= 0.40
     Davidson diagonalization with overlap
     ethr =  2.01E-03,  avg # of iterations =  2.4

     negative rho (up, down):  1.462E-03 0.000E+00

     total cpu time spent up to now is       22.2 secs

     total energy              =   -1105.38574951 Ry
     Harris-Foulkes estimate   =   -1105.39999589 Ry
     estimated scf accuracy    <       0.03208330 Ry

     iteration #  5     ecut=    80.00 Ry     beta= 0.40
     Davidson diagonalization with overlap
     ethr =  3.56E-04,  avg # of iterations =  2.4

     negative rho (up, down):  5.517E-03 0.000E+00

     total cpu time spent up to now is       25.1 secs

     total energy              =   -1105.38229325 Ry
     Harris-Foulkes estimate   =   -1105.41377243 Ry
     estimated scf accuracy    <       0.04932864 Ry

     iteration #  6     ecut=    80.00 Ry     beta= 0.40
     Davidson diagonalization with overlap
     ethr =  3.56E-04,  avg # of iterations =  2.1

     negative rho (up, down):  5.326E-03 0.000E+00

     total cpu time spent up to now is       27.9 secs

     total energy              =   -1105.39144812 Ry
     Harris-Foulkes estimate   =   -1105.39156635 Ry
     estimated scf accuracy    <       0.00050292 Ry

     iteration #  7     ecut=    80.00 Ry     beta= 0.40
     Davidson diagonalization with overlap
     ethr =  5.59E-06,  avg # of iterations =  3.1

     negative rho (up, down):  5.200E-03 0.000E+00

     total cpu time spent up to now is       31.8 secs

     total energy              =   -1105.39165741 Ry
     Harris-Foulkes estimate   =   -1105.39167850 Ry
     estimated scf accuracy    <       0.00037577 Ry

     iteration #  8     ecut=    80.00 Ry     beta= 0.40
     Davidson diagonalization with overlap
     ethr =  4.18E-06,  avg # of iterations =  1.0

     negative rho (up, down):  4.886E-03 0.000E+00

     total cpu time spent up to now is       34.2 secs

     total energy              =   -1105.39154511 Ry
     Harris-Foulkes estimate   =   -1105.39166339 Ry
     estimated scf accuracy    <       0.00031937 Ry

     iteration #  9     ecut=    80.00 Ry     beta= 0.40
     Davidson diagonalization with overlap
     ethr =  3.55E-06,  avg # of iterations =  1.0

     negative rho (up, down):  4.832E-03 0.000E+00

     total cpu time spent up to now is       36.6 secs

     total energy              =   -1105.39156995 Ry
     Harris-Foulkes estimate   =   -1105.39157248 Ry
     estimated scf accuracy    <       0.00000757 Ry

     iteration # 10     ecut=    80.00 Ry     beta= 0.40
     Davidson diagonalization with overlap
     ethr =  8.41E-08,  avg # of iterations =  3.0

     negative rho (up, down):  4.834E-03 0.000E+00

     total cpu time spent up to now is       39.9 secs

     total energy              =   -1105.39157768 Ry
     Harris-Foulkes estimate   =   -1105.39157669 Ry
     estimated scf accuracy    <       0.00000320 Ry

     iteration # 11     ecut=    80.00 Ry     beta= 0.40
     Davidson diagonalization with overlap
     ethr =  3.55E-08,  avg # of iterations =  1.0

     negative rho (up, down):  4.833E-03 0.000E+00

     total cpu time spent up to now is       42.2 secs

     total energy              =   -1105.39157519 Ry
     Harris-Foulkes estimate   =   -1105.39157801 Ry
     estimated scf accuracy    <       0.00000633 Ry

     iteration # 12     ecut=    80.00 Ry     beta= 0.40
     Davidson diagonalization with overlap
     ethr =  3.55E-08,  avg # of iterations =  1.0

     negative rho (up, down):  4.835E-03 0.000E+00

     total cpu time spent up to now is       44.5 secs

     total energy              =   -1105.39157571 Ry
     Harris-Foulkes estimate   =   -1105.39157588 Ry
     estimated scf accuracy    <       0.00000065 Ry

     iteration # 13     ecut=    80.00 Ry     beta= 0.40
     Davidson diagonalization with overlap
     ethr =  7.24E-09,  avg # of iterations =  1.3

     negative rho (up, down):  4.838E-03 0.000E+00

     total cpu time spent up to now is       46.8 secs

     total energy              =   -1105.39157574 Ry
     Harris-Foulkes estimate   =   -1105.39157577 Ry
     estimated scf accuracy    <       0.00000016 Ry

     iteration # 14     ecut=    80.00 Ry     beta= 0.40
     Davidson diagonalization with overlap
     ethr =  1.72E-09,  avg # of iterations =  2.4

     negative rho (up, down):  4.839E-03 0.000E+00

     total cpu time spent up to now is       49.5 secs

     total energy              =   -1105.39157577 Ry
     Harris-Foulkes estimate   =   -1105.39157577 Ry
     estimated scf accuracy    <       0.00000005 Ry

     iteration # 15     ecut=    80.00 Ry     beta= 0.40
     Davidson diagonalization with overlap
     ethr =  5.26E-10,  avg # of iterations =  1.3

     negative rho (up, down):  4.843E-03 0.000E+00

     total cpu time spent up to now is       52.0 secs

     total energy              =   -1105.39157575 Ry
     Harris-Foulkes estimate   =   -1105.39157576 Ry
     estimated scf accuracy    <       0.00000003 Ry

     iteration # 16     ecut=    80.00 Ry     beta= 0.40
     Davidson diagonalization with overlap
     ethr =  3.65E-10,  avg # of iterations =  1.0

     negative rho (up, down):  4.844E-03 0.000E+00

     total cpu time spent up to now is       54.5 secs

     total energy              =   -1105.39157576 Ry
     Harris-Foulkes estimate   =   -1105.39157576 Ry
     estimated scf accuracy    <          3.3E-09 Ry

     iteration # 17     ecut=    80.00 Ry     beta= 0.40
     Davidson diagonalization with overlap
     ethr =  3.68E-11,  avg # of iterations =  2.8

     negative rho (up, down):  4.844E-03 0.000E+00

     total cpu time spent up to now is       57.4 secs

     End of self-consistent calculation

     Number of k-points >= 100: set verbosity='high' to print the bands.

     the Fermi energy is  -975.9538 ev

!    total energy              =   -1105.39157575 Ry
     Harris-Foulkes estimate   =   -1105.39157575 Ry
     estimated scf accuracy    <          5.8E-10 Ry

     total all-electron energy =    -16560.477352 Ry

     The total energy is the sum of the following terms:

     one-electron contribution =    -653.15820142 Ry
     hartree contribution      =       8.02951546 Ry
     xc contribution           =     -22.77868200 Ry
     ewald contribution        =     -54.00185968 Ry
     one-center paw contrib.   =    -383.47834566 Ry
     smearing contrib. (-TS)   =      -0.00400245 Ry

     convergence has been achieved in  17 iterations

     negative rho (up, down):  4.844E-03 0.000E+00

     Forces acting on atoms (cartesian axes, Ry/au):

     atom    1 type  1   force =     0.00000000    0.00000000    0.00000000
     atom    2 type  2   force =    -0.00000000    0.00000000   -0.00000000
     atom    3 type  3   force =     0.00000000    0.00000000    0.00000000

     Total force =     0.000000     Total SCF correction =     0.000000


     Computing stress (Cartesian axis) and pressure


     negative rho (up, down):  4.844E-03 0.000E+00
          total   stress  (Ry/bohr**3)                   (kbar)     P=********
  -2.21176728   0.00000000   0.00000000    -325362.14      0.00      0.00
   0.00000000  -2.21176728  -0.00000000          0.00-325362.14     -0.00
   0.00000000  -0.00000000  -2.21176728          0.00     -0.00-325362.14


     init_run     :      1.02s CPU      2.11s WALL (       1 calls)
     electrons    :     27.91s CPU     52.20s WALL (       1 calls)
     forces       :      0.23s CPU      0.51s WALL (       1 calls)
     stress       :      0.70s CPU      1.30s WALL (       1 calls)

     Called by init_run:
     wfcinit      :      0.68s CPU      1.31s WALL (       1 calls)
     potinit      :      0.04s CPU      0.18s WALL (       1 calls)
     hinit0       :      0.27s CPU      0.53s WALL (       1 calls)

     Called by electrons:
     c_bands      :     22.55s CPU     41.12s WALL (      17 calls)
     sum_band     :      3.67s CPU      6.71s WALL (      17 calls)
     v_of_rho     :      0.12s CPU      0.22s WALL (      18 calls)
     newd         :      0.33s CPU      0.59s WALL (      18 calls)
     PAW_pot      :      1.23s CPU      3.62s WALL (      18 calls)
     mix_rho      :      0.04s CPU      0.07s WALL (      17 calls)

     Called by c_bands:
     init_us_2    :      0.78s CPU      0.99s WALL (    4070 calls)
     cegterg      :     20.95s CPU     38.33s WALL (    1870 calls)

     Called by sum_band:
     sum_band:bec :      0.02s CPU      0.03s WALL (    1870 calls)
     addusdens    :      0.28s CPU      0.35s WALL (      17 calls)

     Called by *egterg:
     h_psi        :     15.21s CPU     28.30s WALL (    6603 calls)
     s_psi        :      1.05s CPU      1.31s WALL (    6603 calls)
     g_psi        :      0.05s CPU      0.06s WALL (    4623 calls)
     cdiaghg      :      1.03s CPU      1.54s WALL (    6493 calls)

     Called by h_psi:
     h_psi:pot    :     15.14s CPU     28.20s WALL (    6603 calls)
     h_psi:calbec :      2.06s CPU      4.13s WALL (    6603 calls)
     vloc_psi     :     11.94s CPU     22.63s WALL (    6603 calls)
     add_vuspsi   :      1.12s CPU      1.42s WALL (    6603 calls)

     General routines
     calbec       :      2.93s CPU      6.21s WALL (    9023 calls)
     fft          :      0.09s CPU      0.39s WALL (     224 calls)
     ffts         :      0.00s CPU      0.01s WALL (      17 calls)
     fftw         :     13.03s CPU     25.51s WALL (  109866 calls)

     Parallel routines
     fft_scatt_xy :      1.09s CPU      1.38s WALL (  110107 calls)
     fft_scatt_yz :      6.77s CPU     17.94s WALL (  110107 calls)

     PWSCF        :    31.71s CPU        59.24s WALL


   This run was terminated on:  12:22: 7  24Oct2018            

=------------------------------------------------------------------------------=
   JOB DONE.
=------------------------------------------------------------------------------=
