
     Program PWSCF v.6.3MaX starts on 24Oct2018 at 12:35:59 

     This program is part of the open-source Quantum ESPRESSO suite
     for quantum simulation of materials; please cite
         "P. Giannozzi et al., J. Phys.:Condens. Matter 21 395502 (2009);
         "P. Giannozzi et al., J. Phys.:Condens. Matter 29 465901 (2017);
          URL http://www.quantum-espresso.org", 
     in publications or presentations arising from this work. More details at
     http://www.quantum-espresso.org/quote

     Parallel version (MPI), running on     8 processors

     MPI processes distributed on     1 nodes
     R & G space division:  proc/nbgrp/npool/nimage =       8
     Waiting for input...
     Reading input from standard input
Warning: card &CELL ignored
Warning: card                CELL_DYNAMICS = 'BFGS' , ignored
Warning: card / ignored

     Current dimensions of program PWSCF are:
     Max number of different atomic species (ntypx) = 10
     Max number of k-points (npk) =  40000
     Max angular momentum in pseudopotentials (lmaxx) =  3
     Message from routine iosys:
     minimal I/O required, wf_collect reset to FALSE
               file N.pbe-n-kjpaw_psl.1.0.0.UPF: wavefunction(s)  2S renormalized
               file Na.pbe-spnl-kjpaw_psl.1.0.0.UPF: wavefunction(s)  2P renormalized

     Subspace diagonalization in iterative solution of the eigenvalue problem:
     a serial algorithm will be used


     Parallelization info
     --------------------
     sticks:   dense  smooth     PW     G-vecs:    dense   smooth      PW
     Min          68      68     23                 1045     1045     198
     Max          69      69     24                 1046     1046     199
     Sum         547     547    187                 8363     8363    1591



     bravais-lattice index     =            2
     lattice parameter (alat)  =       7.0000  a.u.
     unit-cell volume          =      85.7500 (a.u.)^3
     number of atoms/cell      =            3
     number of atomic types    =            3
     number of electrons       =         9.00
     number of Kohn-Sham states=            9
     kinetic-energy cutoff     =      80.0000  Ry
     charge density cutoff     =     320.0000  Ry
     convergence threshold     =      1.0E-09
     mixing beta               =       0.4000
     number of iterations used =            8  plain     mixing
     Exchange-correlation      = SLA PW PBX PBC ( 1  4  3  4 0 0)

     celldm(1)=   7.000000  celldm(2)=   0.000000  celldm(3)=   0.000000
     celldm(4)=   0.000000  celldm(5)=   0.000000  celldm(6)=   0.000000

     crystal axes: (cart. coord. in units of alat)
               a(1) = (  -0.500000   0.000000   0.500000 )  
               a(2) = (   0.000000   0.500000   0.500000 )  
               a(3) = (  -0.500000   0.500000   0.000000 )  

     reciprocal axes: (cart. coord. in units 2 pi/alat)
               b(1) = ( -1.000000 -1.000000  1.000000 )  
               b(2) = (  1.000000  1.000000  1.000000 )  
               b(3) = ( -1.000000  1.000000 -1.000000 )  


     PseudoPot. # 1 for N  read from file:
     ./ps/N.pbe-n-kjpaw_psl.1.0.0.UPF
     MD5 check sum: 200139db3989ad6e773ddd42f12fc3a8
     Pseudo is Projector augmented-wave + core cor, Zval =  5.0
     Generated using "atomic" code by A. Dal Corso v.6.3
     Shape of augmentation charge: PSQ
     Using radial grid of 1085 points,  4 beta functions with: 
                l(1) =   0
                l(2) =   0
                l(3) =   1
                l(4) =   1
     Q(r) pseudized with 0 coefficients 


     PseudoPot. # 2 for Na read from file:
     ./ps/Na.pbe-spnl-kjpaw_psl.1.0.0.UPF
     MD5 check sum: 09e782c158f17eb2240230c4112357ee
     Pseudo is Projector augmented-wave + core cor, Zval =  9.0
     Generated using "atomic" code by A. Dal Corso v.6.3
     Shape of augmentation charge: PSQ
     Using radial grid of 1121 points,  4 beta functions with: 
                l(1) =   0
                l(2) =   0
                l(3) =   1
                l(4) =   1
     Q(r) pseudized with 0 coefficients 


     PseudoPot. # 3 for Cs read from file:
     ./ps/Cs.pbe-spnl-kjpaw_psl.1.0.0.UPF
     MD5 check sum: f98336d4a4407e24c1ab1e3bc36275e8
     Pseudo is Projector augmented-wave + core cor, Zval = -5.0
     Generated using "atomic" code by A. Dal Corso v.6.2.2
     Shape of augmentation charge: PSQ
     Using radial grid of 1251 points,  6 beta functions with: 
                l(1) =   0
                l(2) =   0
                l(3) =   1
                l(4) =   1
                l(5) =   2
                l(6) =   2
     Q(r) pseudized with 0 coefficients 


     atomic species   valence    mass     pseudopotential
        N              5.00    14.00670     N ( 1.00)
        Na             9.00    22.98977     Na( 1.00)
        Cs            -5.00   132.90545     Cs( 1.00)

     24 Sym. Ops. (no inversion) found



   Cartesian axes

     site n.     atom                  positions (alat units)
         1           N   tau(   1) = (   0.0000000   0.0000000   0.0000000  )
         2           Na  tau(   2) = (  -0.2500000   0.2500000   0.2500000  )
         3           Cs  tau(   3) = (  -0.7500000   0.7500000   0.7500000  )

     number of k points=   110  Methfessel-Paxton smearing, width (Ry)=  0.0200

     Number of k-points >= 100: set verbosity='high' to print them.

     Dense  grid:     8363 G-vectors     FFT dimensions: (  30,  30,  30)

     Estimated max dynamical RAM per process >      10.78 MB

     Estimated total dynamical RAM >      86.25 MB

     Initial potential from superposition of free atoms

     starting charge   22.95298, renormalised to    9.00000
     Starting wfcs are   14 randomized atomic wfcs
     Checking if some PAW data can be deallocated... 

     total cpu time spent up to now is        4.5 secs

     Self-consistent Calculation

     iteration #  1     ecut=    80.00 Ry     beta= 0.40
     Davidson diagonalization with overlap
     ethr =  1.00E-02,  avg # of iterations =  9.8

     negative rho (up, down):  1.401E-01 0.000E+00

     total cpu time spent up to now is        8.9 secs

     total energy              =   -2289.25379674 Ry
     Harris-Foulkes estimate   =   -2294.09838630 Ry
     estimated scf accuracy    <      12.12001578 Ry

     iteration #  2     ecut=    80.00 Ry     beta= 0.40
     Davidson diagonalization with overlap
     ethr =  1.00E-02,  avg # of iterations =  1.2

     negative rho (up, down):  3.861E-01 0.000E+00

     total cpu time spent up to now is       10.2 secs

     total energy              =   -2286.71809056 Ry
     Harris-Foulkes estimate   =   -2289.35410103 Ry
     estimated scf accuracy    <       3.97022491 Ry

     iteration #  3     ecut=    80.00 Ry     beta= 0.40
     Davidson diagonalization with overlap
     ethr =  1.00E-02,  avg # of iterations =  2.2

     negative rho (up, down):  4.175E-01 0.000E+00

     total cpu time spent up to now is       11.7 secs

     total energy              =   -2287.03861270 Ry
     Harris-Foulkes estimate   =   -2287.00609814 Ry
     estimated scf accuracy    <       0.14139881 Ry

     iteration #  4     ecut=    80.00 Ry     beta= 0.40
     Davidson diagonalization with overlap
     ethr =  1.57E-03,  avg # of iterations =  4.0

     negative rho (up, down):  2.190E-01 0.000E+00

     total cpu time spent up to now is       13.2 secs

     total energy              =   -2286.89387971 Ry
     Harris-Foulkes estimate   =   -2287.04670875 Ry
     estimated scf accuracy    <       0.23342494 Ry

     iteration #  5     ecut=    80.00 Ry     beta= 0.40
     Davidson diagonalization with overlap
     ethr =  1.57E-03,  avg # of iterations =  1.9

     negative rho (up, down):  2.342E-01 0.000E+00

     total cpu time spent up to now is       14.5 secs

     total energy              =   -2286.93949852 Ry
     Harris-Foulkes estimate   =   -2286.94421165 Ry
     estimated scf accuracy    <       0.01104900 Ry

     iteration #  6     ecut=    80.00 Ry     beta= 0.40
     Davidson diagonalization with overlap
     ethr =  1.23E-04,  avg # of iterations =  4.2

     negative rho (up, down):  2.450E-01 0.000E+00

     total cpu time spent up to now is       16.4 secs

     total energy              =   -2286.94001039 Ry
     Harris-Foulkes estimate   =   -2286.94149404 Ry
     estimated scf accuracy    <       0.00295389 Ry

     iteration #  7     ecut=    80.00 Ry     beta= 0.40
     Davidson diagonalization with overlap
     ethr =  3.28E-05,  avg # of iterations =  2.2

     negative rho (up, down):  2.480E-01 0.000E+00

     total cpu time spent up to now is       17.8 secs

     total energy              =   -2286.94023425 Ry
     Harris-Foulkes estimate   =   -2286.94039621 Ry
     estimated scf accuracy    <       0.00026979 Ry

     iteration #  8     ecut=    80.00 Ry     beta= 0.40
     Davidson diagonalization with overlap
     c_bands:  1 eigenvalues not converged
     c_bands:  1 eigenvalues not converged
     ethr =  3.00E-06,  avg # of iterations =  5.0

     negative rho (up, down):  2.468E-01 0.000E+00

     total cpu time spent up to now is       20.0 secs

     total energy              =   -2286.94037735 Ry
     Harris-Foulkes estimate   =   -2286.94037739 Ry
     estimated scf accuracy    <       0.00000213 Ry

     iteration #  9     ecut=    80.00 Ry     beta= 0.40
     Davidson diagonalization with overlap
     c_bands:  1 eigenvalues not converged
     ethr =  2.37E-08,  avg # of iterations =  4.4

     negative rho (up, down):  2.473E-01 0.000E+00

     total cpu time spent up to now is       21.8 secs

     total energy              =   -2286.94037800 Ry
     Harris-Foulkes estimate   =   -2286.94038127 Ry
     estimated scf accuracy    <       0.00000559 Ry

     iteration # 10     ecut=    80.00 Ry     beta= 0.40
     Davidson diagonalization with overlap
     ethr =  2.37E-08,  avg # of iterations =  2.1

     negative rho (up, down):  2.473E-01 0.000E+00

     total cpu time spent up to now is       23.2 secs

     total energy              =   -2286.94037873 Ry
     Harris-Foulkes estimate   =   -2286.94037875 Ry
     estimated scf accuracy    <       0.00000009 Ry

     iteration # 11     ecut=    80.00 Ry     beta= 0.40
     Davidson diagonalization with overlap
     ethr =  1.05E-09,  avg # of iterations =  3.3

     negative rho (up, down):  2.472E-01 0.000E+00

     total cpu time spent up to now is       24.8 secs

     total energy              =   -2286.94037874 Ry
     Harris-Foulkes estimate   =   -2286.94037876 Ry
     estimated scf accuracy    <       0.00000003 Ry

     iteration # 12     ecut=    80.00 Ry     beta= 0.40
     Davidson diagonalization with overlap
     ethr =  3.14E-10,  avg # of iterations =  1.8

     negative rho (up, down):  2.472E-01 0.000E+00

     total cpu time spent up to now is       26.0 secs

     total energy              =   -2286.94037873 Ry
     Harris-Foulkes estimate   =   -2286.94037873 Ry
     estimated scf accuracy    <          9.3E-09 Ry

     iteration # 13     ecut=    80.00 Ry     beta= 0.40
     Davidson diagonalization with overlap
     ethr =  1.04E-10,  avg # of iterations =  1.8

     negative rho (up, down):  2.473E-01 0.000E+00

     total cpu time spent up to now is       27.3 secs

     End of self-consistent calculation

     Number of k-points >= 100: set verbosity='high' to print the bands.

     the Fermi energy is -2726.5655 ev

!    total energy              =   -2286.94037876 Ry
     Harris-Foulkes estimate   =   -2286.94037876 Ry
     estimated scf accuracy    <          3.0E-10 Ry

     total all-electron energy =    -17742.026155 Ry

     The total energy is the sum of the following terms:

     one-electron contribution =   -1804.78100587 Ry
     hartree contribution      =       3.74148380 Ry
     xc contribution           =     -24.94094569 Ry
     ewald contribution        =     -76.37405870 Ry
     one-center paw contrib.   =    -384.58319842 Ry
     smearing contrib. (-TS)   =      -0.00265389 Ry

     convergence has been achieved in  13 iterations

     negative rho (up, down):  2.473E-01 0.000E+00

     Forces acting on atoms (cartesian axes, Ry/au):

     atom    1 type  1   force =     0.00000000   -0.00000000    0.00000000
     atom    2 type  2   force =    -0.00000000   -0.00000000    0.00000000
     atom    3 type  3   force =    -0.00000000   -0.00000000    0.00000000

     Total force =     0.000000     Total SCF correction =     0.000000


     Computing stress (Cartesian axis) and pressure


     negative rho (up, down):  2.473E-01 0.000E+00
          total   stress  (Ry/bohr**3)                   (kbar)     P=********
 -22.29547140   0.00000000   0.00000000    **********      0.00      0.00
   0.00000000 -22.29547140  -0.00000000          0.00**********     -0.00
   0.00000000  -0.00000000 -22.29547140          0.00     -0.00**********


     init_run     :      0.69s CPU      1.43s WALL (       1 calls)
     electrons    :     10.86s CPU     22.79s WALL (       1 calls)
     forces       :      0.11s CPU      0.22s WALL (       1 calls)
     stress       :      0.28s CPU      0.54s WALL (       1 calls)

     Called by init_run:
     wfcinit      :      0.42s CPU      0.68s WALL (       1 calls)
     potinit      :      0.05s CPU      0.27s WALL (       1 calls)
     hinit0       :      0.20s CPU      0.44s WALL (       1 calls)

     Called by electrons:
     c_bands      :      8.71s CPU     17.26s WALL (      13 calls)
     sum_band     :      1.31s CPU      2.40s WALL (      13 calls)
     v_of_rho     :      0.04s CPU      0.07s WALL (      14 calls)
     newd         :      0.08s CPU      0.16s WALL (      14 calls)
     PAW_pot      :      0.74s CPU      3.11s WALL (      14 calls)
     mix_rho      :      0.01s CPU      0.02s WALL (      13 calls)

     Called by c_bands:
     init_us_2    :      0.24s CPU      0.30s WALL (    3190 calls)
     cegterg      :      8.25s CPU     16.37s WALL (    1430 calls)

     Called by sum_band:
     sum_band:bec :      0.01s CPU      0.02s WALL (    1430 calls)
     addusdens    :      0.07s CPU      0.07s WALL (      13 calls)

     Called by *egterg:
     h_psi        :      5.77s CPU     11.67s WALL (    6363 calls)
     s_psi        :      0.36s CPU      0.44s WALL (    6363 calls)
     g_psi        :      0.02s CPU      0.02s WALL (    4823 calls)
     cdiaghg      :      0.98s CPU      1.70s WALL (    6253 calls)

     Called by h_psi:
     h_psi:pot    :      5.75s CPU     11.64s WALL (    6363 calls)
     h_psi:calbec :      0.66s CPU      1.76s WALL (    6363 calls)
     vloc_psi     :      4.69s CPU      9.40s WALL (    6363 calls)
     add_vuspsi   :      0.37s CPU      0.47s WALL (    6363 calls)

     General routines
     calbec       :      1.00s CPU      2.58s WALL (    8343 calls)
     fft          :      0.04s CPU      0.16s WALL (     180 calls)
     ffts         :      0.00s CPU      0.00s WALL (      13 calls)
     fftw         :      5.14s CPU     10.46s WALL (   91270 calls)

     Parallel routines
     fft_scatt_xy :      0.47s CPU      0.59s WALL (   91463 calls)
     fft_scatt_yz :      2.38s CPU      7.16s WALL (   91463 calls)

     PWSCF        :    13.83s CPU        28.03s WALL


   This run was terminated on:  12:36:27  24Oct2018            

=------------------------------------------------------------------------------=
   JOB DONE.
=------------------------------------------------------------------------------=
