
     Program PWSCF v.6.3MaX starts on 24Oct2018 at 12:20: 0 

     This program is part of the open-source Quantum ESPRESSO suite
     for quantum simulation of materials; please cite
         "P. Giannozzi et al., J. Phys.:Condens. Matter 21 395502 (2009);
         "P. Giannozzi et al., J. Phys.:Condens. Matter 29 465901 (2017);
          URL http://www.quantum-espresso.org", 
     in publications or presentations arising from this work. More details at
     http://www.quantum-espresso.org/quote

     Parallel version (MPI), running on     8 processors

     MPI processes distributed on     1 nodes
     R & G space division:  proc/nbgrp/npool/nimage =       8
     Waiting for input...
     Reading input from standard input
Warning: card &CELL ignored
Warning: card                CELL_DYNAMICS = 'BFGS' , ignored
Warning: card / ignored

     Current dimensions of program PWSCF are:
     Max number of different atomic species (ntypx) = 10
     Max number of k-points (npk) =  40000
     Max angular momentum in pseudopotentials (lmaxx) =  3
     Message from routine iosys:
     minimal I/O required, wf_collect reset to FALSE
               file N.pbe-n-kjpaw_psl.1.0.0.UPF: wavefunction(s)  2S renormalized
               file Na.pbe-spnl-kjpaw_psl.1.0.0.UPF: wavefunction(s)  2P renormalized

     Subspace diagonalization in iterative solution of the eigenvalue problem:
     a serial algorithm will be used


     Parallelization info
     --------------------
     sticks:   dense  smooth     PW     G-vecs:    dense   smooth      PW
     Min         131     131     39                 2832     2832     479
     Max         133     133     40                 2833     2833     484
     Sum        1057    1057    313                22659    22659    3839



     bravais-lattice index     =            2
     lattice parameter (alat)  =       9.8000  a.u.
     unit-cell volume          =     235.2980 (a.u.)^3
     number of atoms/cell      =            3
     number of atomic types    =            3
     number of electrons       =         9.00
     number of Kohn-Sham states=            9
     kinetic-energy cutoff     =      80.0000  Ry
     charge density cutoff     =     320.0000  Ry
     convergence threshold     =      1.0E-09
     mixing beta               =       0.4000
     number of iterations used =            8  plain     mixing
     Exchange-correlation      = SLA PW PBX PBC ( 1  4  3  4 0 0)

     celldm(1)=   9.800000  celldm(2)=   0.000000  celldm(3)=   0.000000
     celldm(4)=   0.000000  celldm(5)=   0.000000  celldm(6)=   0.000000

     crystal axes: (cart. coord. in units of alat)
               a(1) = (  -0.500000   0.000000   0.500000 )  
               a(2) = (   0.000000   0.500000   0.500000 )  
               a(3) = (  -0.500000   0.500000   0.000000 )  

     reciprocal axes: (cart. coord. in units 2 pi/alat)
               b(1) = ( -1.000000 -1.000000  1.000000 )  
               b(2) = (  1.000000  1.000000  1.000000 )  
               b(3) = ( -1.000000  1.000000 -1.000000 )  


     PseudoPot. # 1 for N  read from file:
     ./ps/N.pbe-n-kjpaw_psl.1.0.0.UPF
     MD5 check sum: 200139db3989ad6e773ddd42f12fc3a8
     Pseudo is Projector augmented-wave + core cor, Zval =  5.0
     Generated using "atomic" code by A. Dal Corso v.6.3
     Shape of augmentation charge: PSQ
     Using radial grid of 1085 points,  4 beta functions with: 
                l(1) =   0
                l(2) =   0
                l(3) =   1
                l(4) =   1
     Q(r) pseudized with 0 coefficients 


     PseudoPot. # 2 for Na read from file:
     ./ps/Na.pbe-spnl-kjpaw_psl.1.0.0.UPF
     MD5 check sum: 09e782c158f17eb2240230c4112357ee
     Pseudo is Projector augmented-wave + core cor, Zval =  9.0
     Generated using "atomic" code by A. Dal Corso v.6.3
     Shape of augmentation charge: PSQ
     Using radial grid of 1121 points,  4 beta functions with: 
                l(1) =   0
                l(2) =   0
                l(3) =   1
                l(4) =   1
     Q(r) pseudized with 0 coefficients 


     PseudoPot. # 3 for Cs read from file:
     ./ps/Cs.pbe-spnl-kjpaw_psl.1.0.0.UPF
     MD5 check sum: f98336d4a4407e24c1ab1e3bc36275e8
     Pseudo is Projector augmented-wave + core cor, Zval = -5.0
     Generated using "atomic" code by A. Dal Corso v.6.2.2
     Shape of augmentation charge: PSQ
     Using radial grid of 1251 points,  6 beta functions with: 
                l(1) =   0
                l(2) =   0
                l(3) =   1
                l(4) =   1
                l(5) =   2
                l(6) =   2
     Q(r) pseudized with 0 coefficients 


     atomic species   valence    mass     pseudopotential
        N              5.00    14.00670     N ( 1.00)
        Na             9.00    22.98977     Na( 1.00)
        Cs            -5.00   132.90545     Cs( 1.00)

     24 Sym. Ops. (no inversion) found



   Cartesian axes

     site n.     atom                  positions (alat units)
         1           N   tau(   1) = (   0.0000000   0.0000000   0.0000000  )
         2           Na  tau(   2) = (  -0.2500000   0.2500000   0.2500000  )
         3           Cs  tau(   3) = (  -0.7500000   0.7500000   0.7500000  )

     number of k points=   110  Methfessel-Paxton smearing, width (Ry)=  0.0200

     Number of k-points >= 100: set verbosity='high' to print them.

     Dense  grid:    22659 G-vectors     FFT dimensions: (  40,  40,  40)

     Estimated max dynamical RAM per process >      22.90 MB

     Estimated total dynamical RAM >     183.17 MB

     Check: negative/imaginary core charge=   -0.000002    0.000000

     Initial potential from superposition of free atoms

     starting charge   22.95298, renormalised to    9.00000
     Starting wfcs are   14 randomized atomic wfcs
     Checking if some PAW data can be deallocated... 

     total cpu time spent up to now is        5.2 secs

     Self-consistent Calculation

     iteration #  1     ecut=    80.00 Ry     beta= 0.40
     Davidson diagonalization with overlap
     ethr =  1.00E-02,  avg # of iterations = 10.1

     total cpu time spent up to now is       11.9 secs

     total energy              =   -1120.81320702 Ry
     Harris-Foulkes estimate   =   -1127.17860605 Ry
     estimated scf accuracy    <      14.30480167 Ry

     iteration #  2     ecut=    80.00 Ry     beta= 0.40
     Davidson diagonalization with overlap
     ethr =  1.00E-02,  avg # of iterations =  4.8

     total cpu time spent up to now is       16.5 secs

     total energy              =   -1122.48224625 Ry
     Harris-Foulkes estimate   =   -1122.96066199 Ry
     estimated scf accuracy    <       0.93754532 Ry

     iteration #  3     ecut=    80.00 Ry     beta= 0.40
     Davidson diagonalization with overlap
     ethr =  1.00E-02,  avg # of iterations =  1.0

     negative rho (up, down):  3.102E-04 0.000E+00

     total cpu time spent up to now is       18.8 secs

     total energy              =   -1122.28019927 Ry
     Harris-Foulkes estimate   =   -1122.50505944 Ry
     estimated scf accuracy    <       0.26268246 Ry

     iteration #  4     ecut=    80.00 Ry     beta= 0.40
     Davidson diagonalization with overlap
     ethr =  2.92E-03,  avg # of iterations =  2.0

     negative rho (up, down):  1.360E-02 0.000E+00

     total cpu time spent up to now is       21.4 secs

     total energy              =   -1122.30381561 Ry
     Harris-Foulkes estimate   =   -1122.31078409 Ry
     estimated scf accuracy    <       0.01550483 Ry

     iteration #  5     ecut=    80.00 Ry     beta= 0.40
     Davidson diagonalization with overlap
     ethr =  1.72E-04,  avg # of iterations =  6.7

     negative rho (up, down):  1.351E-02 0.000E+00

     total cpu time spent up to now is       25.9 secs

     total energy              =   -1122.30225572 Ry
     Harris-Foulkes estimate   =   -1122.31249272 Ry
     estimated scf accuracy    <       0.01694241 Ry

     iteration #  6     ecut=    80.00 Ry     beta= 0.40
     Davidson diagonalization with overlap
     ethr =  1.72E-04,  avg # of iterations =  2.1

     negative rho (up, down):  1.352E-02 0.000E+00

     total cpu time spent up to now is       28.5 secs

     total energy              =   -1122.30576970 Ry
     Harris-Foulkes estimate   =   -1122.30580070 Ry
     estimated scf accuracy    <       0.00042191 Ry

     iteration #  7     ecut=    80.00 Ry     beta= 0.40
     Davidson diagonalization with overlap
     c_bands:  1 eigenvalues not converged
     c_bands:  1 eigenvalues not converged
     ethr =  4.69E-06,  avg # of iterations =  7.3

     negative rho (up, down):  1.352E-02 0.000E+00

     total cpu time spent up to now is       33.5 secs

     total energy              =   -1122.30598503 Ry
     Harris-Foulkes estimate   =   -1122.30598948 Ry
     estimated scf accuracy    <       0.00037054 Ry

     iteration #  8     ecut=    80.00 Ry     beta= 0.40
     Davidson diagonalization with overlap
     ethr =  4.12E-06,  avg # of iterations =  1.0

     negative rho (up, down):  1.395E-02 0.000E+00

     total cpu time spent up to now is       35.7 secs

     total energy              =   -1122.30583667 Ry
     Harris-Foulkes estimate   =   -1122.30598623 Ry
     estimated scf accuracy    <       0.00036086 Ry

     iteration #  9     ecut=    80.00 Ry     beta= 0.40
     Davidson diagonalization with overlap
     ethr =  4.01E-06,  avg # of iterations =  1.0

     negative rho (up, down):  1.417E-02 0.000E+00

     total cpu time spent up to now is       38.0 secs

     total energy              =   -1122.30586947 Ry
     Harris-Foulkes estimate   =   -1122.30587045 Ry
     estimated scf accuracy    <       0.00002354 Ry

     iteration # 10     ecut=    80.00 Ry     beta= 0.40
     Davidson diagonalization with overlap
     c_bands:  1 eigenvalues not converged
     ethr =  2.62E-07,  avg # of iterations =  2.7

     negative rho (up, down):  1.415E-02 0.000E+00

     total cpu time spent up to now is       41.1 secs

     total energy              =   -1122.30587838 Ry
     Harris-Foulkes estimate   =   -1122.30587996 Ry
     estimated scf accuracy    <       0.00002190 Ry

     iteration # 11     ecut=    80.00 Ry     beta= 0.40
     Davidson diagonalization with overlap
     ethr =  2.43E-07,  avg # of iterations =  1.0

     negative rho (up, down):  1.414E-02 0.000E+00

     total cpu time spent up to now is       43.5 secs

     total energy              =   -1122.30587357 Ry
     Harris-Foulkes estimate   =   -1122.30587856 Ry
     estimated scf accuracy    <       0.00001756 Ry

     iteration # 12     ecut=    80.00 Ry     beta= 0.40
     Davidson diagonalization with overlap
     ethr =  1.95E-07,  avg # of iterations =  1.0

     negative rho (up, down):  1.417E-02 0.000E+00

     total cpu time spent up to now is       45.9 secs

     total energy              =   -1122.30587099 Ry
     Harris-Foulkes estimate   =   -1122.30587411 Ry
     estimated scf accuracy    <       0.00000552 Ry

     iteration # 13     ecut=    80.00 Ry     beta= 0.40
     Davidson diagonalization with overlap
     ethr =  6.14E-08,  avg # of iterations =  2.0

     negative rho (up, down):  1.413E-02 0.000E+00

     total cpu time spent up to now is       48.9 secs

     total energy              =   -1122.30587187 Ry
     Harris-Foulkes estimate   =   -1122.30587312 Ry
     estimated scf accuracy    <       0.00000332 Ry

     iteration # 14     ecut=    80.00 Ry     beta= 0.40
     Davidson diagonalization with overlap
     ethr =  3.69E-08,  avg # of iterations =  1.1

     negative rho (up, down):  1.411E-02 0.000E+00

     total cpu time spent up to now is       51.2 secs

     total energy              =   -1122.30587235 Ry
     Harris-Foulkes estimate   =   -1122.30587239 Ry
     estimated scf accuracy    <       0.00000027 Ry

     iteration # 15     ecut=    80.00 Ry     beta= 0.40
     Davidson diagonalization with overlap
     ethr =  2.99E-09,  avg # of iterations =  1.6

     negative rho (up, down):  1.410E-02 0.000E+00

     total cpu time spent up to now is       53.6 secs

     total energy              =   -1122.30587239 Ry
     Harris-Foulkes estimate   =   -1122.30587238 Ry
     estimated scf accuracy    <       0.00000005 Ry

     iteration # 16     ecut=    80.00 Ry     beta= 0.40
     Davidson diagonalization with overlap
     ethr =  5.57E-10,  avg # of iterations =  2.3

     negative rho (up, down):  1.409E-02 0.000E+00

     total cpu time spent up to now is       56.3 secs

     total energy              =   -1122.30587237 Ry
     Harris-Foulkes estimate   =   -1122.30587240 Ry
     estimated scf accuracy    <       0.00000005 Ry

     iteration # 17     ecut=    80.00 Ry     beta= 0.40
     Davidson diagonalization with overlap
     ethr =  5.29E-10,  avg # of iterations =  2.0

     negative rho (up, down):  1.409E-02 0.000E+00

     total cpu time spent up to now is       59.0 secs

     total energy              =   -1122.30587239 Ry
     Harris-Foulkes estimate   =   -1122.30587240 Ry
     estimated scf accuracy    <       0.00000003 Ry

     iteration # 18     ecut=    80.00 Ry     beta= 0.40
     Davidson diagonalization with overlap
     ethr =  3.25E-10,  avg # of iterations =  1.0

     negative rho (up, down):  1.409E-02 0.000E+00

     total cpu time spent up to now is       61.3 secs

     total energy              =   -1122.30587239 Ry
     Harris-Foulkes estimate   =   -1122.30587239 Ry
     estimated scf accuracy    <       0.00000001 Ry

     iteration # 19     ecut=    80.00 Ry     beta= 0.40
     Davidson diagonalization with overlap
     ethr =  1.14E-10,  avg # of iterations =  1.0

     negative rho (up, down):  1.409E-02 0.000E+00

     total cpu time spent up to now is       63.8 secs

     total energy              =   -1122.30587239 Ry
     Harris-Foulkes estimate   =   -1122.30587239 Ry
     estimated scf accuracy    <          5.6E-09 Ry

     iteration # 20     ecut=    80.00 Ry     beta= 0.40
     Davidson diagonalization with overlap
     ethr =  6.28E-11,  avg # of iterations =  1.0

     negative rho (up, down):  1.409E-02 0.000E+00

     total cpu time spent up to now is       66.2 secs

     End of self-consistent calculation

     Number of k-points >= 100: set verbosity='high' to print the bands.

     the Fermi energy is -1005.3734 ev

!    total energy              =   -1122.30587239 Ry
     Harris-Foulkes estimate   =   -1122.30587239 Ry
     estimated scf accuracy    <          5.9E-10 Ry

     total all-electron energy =    -16577.391648 Ry

     The total energy is the sum of the following terms:

     one-electron contribution =    -668.83550208 Ry
     hartree contribution      =       6.50850146 Ry
     xc contribution           =     -22.16485539 Ry
     ewald contribution        =     -54.55289907 Ry
     one-center paw contrib.   =    -383.25611098 Ry
     smearing contrib. (-TS)   =      -0.00500634 Ry

     convergence has been achieved in  20 iterations

     negative rho (up, down):  1.409E-02 0.000E+00

     Forces acting on atoms (cartesian axes, Ry/au):

     atom    1 type  1   force =     0.00000000   -0.00000000    0.00000000
     atom    2 type  2   force =     0.00000000    0.00000000   -0.00000000
     atom    3 type  3   force =     0.00000000    0.00000000    0.00000000

     Total force =     0.000000     Total SCF correction =     0.000000


     Computing stress (Cartesian axis) and pressure


     negative rho (up, down):  1.409E-02 0.000E+00
          total   stress  (Ry/bohr**3)                   (kbar)     P=********
  -2.46100523  -0.00000000  -0.00000000    -362026.31     -0.00     -0.00
  -0.00000000  -2.46100523   0.00000000         -0.00-362026.31      0.00
  -0.00000000   0.00000000  -2.46100523         -0.00      0.00-362026.31


     init_run     :      1.07s CPU      2.12s WALL (       1 calls)
     electrons    :     31.64s CPU     60.92s WALL (       1 calls)
     forces       :      0.25s CPU      0.52s WALL (       1 calls)
     stress       :      0.74s CPU      1.32s WALL (       1 calls)

     Called by init_run:
     wfcinit      :      0.68s CPU      1.31s WALL (       1 calls)
     potinit      :      0.06s CPU      0.23s WALL (       1 calls)
     hinit0       :      0.29s CPU      0.52s WALL (       1 calls)

     Called by electrons:
     c_bands      :     25.96s CPU     48.34s WALL (      20 calls)
     sum_band     :      4.08s CPU      7.86s WALL (      20 calls)
     v_of_rho     :      0.14s CPU      0.26s WALL (      21 calls)
     newd         :      0.34s CPU      0.64s WALL (      21 calls)
     PAW_pot      :      1.12s CPU      3.92s WALL (      21 calls)
     mix_rho      :      0.04s CPU      0.08s WALL (      20 calls)

     Called by c_bands:
     init_us_2    :      0.93s CPU      1.12s WALL (    4730 calls)
     cegterg      :     24.21s CPU     45.07s WALL (    2200 calls)

     Called by sum_band:
     sum_band:bec :      0.03s CPU      0.03s WALL (    2200 calls)
     addusdens    :      0.29s CPU      0.38s WALL (      20 calls)

     Called by *egterg:
     h_psi        :     17.46s CPU     33.37s WALL (    8111 calls)
     s_psi        :      1.20s CPU      1.45s WALL (    8111 calls)
     g_psi        :      0.06s CPU      0.07s WALL (    5801 calls)
     cdiaghg      :      1.37s CPU      2.09s WALL (    8001 calls)

     Called by h_psi:
     h_psi:pot    :     17.38s CPU     33.27s WALL (    8111 calls)
     h_psi:calbec :      2.30s CPU      5.31s WALL (    8111 calls)
     vloc_psi     :     13.75s CPU     26.34s WALL (    8111 calls)
     add_vuspsi   :      1.29s CPU      1.59s WALL (    8111 calls)

     General routines
     calbec       :      3.28s CPU      7.65s WALL (   10861 calls)
     fft          :      0.10s CPU      0.37s WALL (     257 calls)
     ffts         :      0.00s CPU      0.01s WALL (      20 calls)
     fftw         :     14.88s CPU     29.71s WALL (  127394 calls)

     Parallel routines
     fft_scatt_xy :      1.30s CPU      1.59s WALL (  127671 calls)
     fft_scatt_yz :      7.26s CPU     20.62s WALL (  127671 calls)

     PWSCF        :    35.54s CPU     1m 8.01s WALL


   This run was terminated on:  12:21: 8  24Oct2018            

=------------------------------------------------------------------------------=
   JOB DONE.
=------------------------------------------------------------------------------=
