
     Program PWSCF v.6.3MaX starts on 24Oct2018 at  7:46:25 

     This program is part of the open-source Quantum ESPRESSO suite
     for quantum simulation of materials; please cite
         "P. Giannozzi et al., J. Phys.:Condens. Matter 21 395502 (2009);
         "P. Giannozzi et al., J. Phys.:Condens. Matter 29 465901 (2017);
          URL http://www.quantum-espresso.org", 
     in publications or presentations arising from this work. More details at
     http://www.quantum-espresso.org/quote

     Parallel version (MPI), running on     8 processors

     MPI processes distributed on     1 nodes
     R & G space division:  proc/nbgrp/npool/nimage =       8
     Waiting for input...
     Reading input from standard input
Warning: card &CELL ignored
Warning: card                CELL_DYNAMICS = 'BFGS' , ignored
Warning: card / ignored

     Current dimensions of program PWSCF are:
     Max number of different atomic species (ntypx) = 10
     Max number of k-points (npk) =  40000
     Max angular momentum in pseudopotentials (lmaxx) =  3
     Message from routine iosys:
     minimal I/O required, wf_collect reset to FALSE
               file N.pbe-n-kjpaw_psl.1.0.0.UPF: wavefunction(s)  2S renormalized
               file Na.pbe-spnl-kjpaw_psl.1.0.0.UPF: wavefunction(s)  2P renormalized

     Subspace diagonalization in iterative solution of the eigenvalue problem:
     a serial algorithm will be used


     Parallelization info
     --------------------
     sticks:   dense  smooth     PW     G-vecs:    dense   smooth      PW
     Min         148     148     45                 3413     3413     570
     Max         149     149     46                 3416     3416     573
     Sum        1189    1189    361                27317    27317    4573



     bravais-lattice index     =            2
     lattice parameter (alat)  =      10.4000  a.u.
     unit-cell volume          =     281.2160 (a.u.)^3
     number of atoms/cell      =            3
     number of atomic types    =            3
     number of electrons       =         9.00
     number of Kohn-Sham states=            9
     kinetic-energy cutoff     =      80.0000  Ry
     charge density cutoff     =     320.0000  Ry
     convergence threshold     =      1.0E-09
     mixing beta               =       0.4000
     number of iterations used =            8  plain     mixing
     Exchange-correlation      = SLA PW PBX PBC ( 1  4  3  4 0 0)

     celldm(1)=  10.400000  celldm(2)=   0.000000  celldm(3)=   0.000000
     celldm(4)=   0.000000  celldm(5)=   0.000000  celldm(6)=   0.000000

     crystal axes: (cart. coord. in units of alat)
               a(1) = (  -0.500000   0.000000   0.500000 )  
               a(2) = (   0.000000   0.500000   0.500000 )  
               a(3) = (  -0.500000   0.500000   0.000000 )  

     reciprocal axes: (cart. coord. in units 2 pi/alat)
               b(1) = ( -1.000000 -1.000000  1.000000 )  
               b(2) = (  1.000000  1.000000  1.000000 )  
               b(3) = ( -1.000000  1.000000 -1.000000 )  


     PseudoPot. # 1 for N  read from file:
     ./ps/N.pbe-n-kjpaw_psl.1.0.0.UPF
     MD5 check sum: 200139db3989ad6e773ddd42f12fc3a8
     Pseudo is Projector augmented-wave + core cor, Zval =  5.0
     Generated using "atomic" code by A. Dal Corso v.6.3
     Shape of augmentation charge: PSQ
     Using radial grid of 1085 points,  4 beta functions with: 
                l(1) =   0
                l(2) =   0
                l(3) =   1
                l(4) =   1
     Q(r) pseudized with 0 coefficients 


     PseudoPot. # 2 for Na read from file:
     ./ps/Na.pbe-spnl-kjpaw_psl.1.0.0.UPF
     MD5 check sum: 09e782c158f17eb2240230c4112357ee
     Pseudo is Projector augmented-wave + core cor, Zval =  9.0
     Generated using "atomic" code by A. Dal Corso v.6.3
     Shape of augmentation charge: PSQ
     Using radial grid of 1121 points,  4 beta functions with: 
                l(1) =   0
                l(2) =   0
                l(3) =   1
                l(4) =   1
     Q(r) pseudized with 0 coefficients 


     PseudoPot. # 3 for Cs read from file:
     ./ps/Cs.pbe-spnl-kjpaw_psl.1.0.0.UPF
     MD5 check sum: f98336d4a4407e24c1ab1e3bc36275e8
     Pseudo is Projector augmented-wave + core cor, Zval = -5.0
     Generated using "atomic" code by A. Dal Corso v.6.2.2
     Shape of augmentation charge: PSQ
     Using radial grid of 1251 points,  6 beta functions with: 
                l(1) =   0
                l(2) =   0
                l(3) =   1
                l(4) =   1
                l(5) =   2
                l(6) =   2
     Q(r) pseudized with 0 coefficients 


     atomic species   valence    mass     pseudopotential
        N              5.00    14.00670     N ( 1.00)
        Na             9.00    22.98977     Na( 1.00)
        Cs            -5.00   132.90545     Cs( 1.00)

     24 Sym. Ops. (no inversion) found



   Cartesian axes

     site n.     atom                  positions (alat units)
         1           N   tau(   1) = (   0.0000000   0.0000000   0.0000000  )
         2           Na  tau(   2) = (  -0.5000000   0.5000000   0.5000000  )
         3           Cs  tau(   3) = (  -0.7500000   0.7500000   0.7500000  )

     number of k points=   110  Methfessel-Paxton smearing, width (Ry)=  0.0200

     Number of k-points >= 100: set verbosity='high' to print them.

     Dense  grid:    27317 G-vectors     FFT dimensions: (  45,  45,  45)

     Estimated max dynamical RAM per process >      26.75 MB

     Estimated total dynamical RAM >     213.97 MB

     Check: negative/imaginary core charge=   -0.000003    0.000000

     Initial potential from superposition of free atoms

     starting charge   22.95298, renormalised to    9.00000
     Starting wfcs are   14 randomized atomic wfcs
     Checking if some PAW data can be deallocated... 

     total cpu time spent up to now is        7.0 secs

     Self-consistent Calculation

     iteration #  1     ecut=    80.00 Ry     beta= 0.40
     Davidson diagonalization with overlap
     ethr =  1.00E-02,  avg # of iterations =  8.3

     total cpu time spent up to now is       15.5 secs

     total energy              =   -1092.83771913 Ry
     Harris-Foulkes estimate   =   -1113.59923118 Ry
     estimated scf accuracy    <      36.11623640 Ry

     iteration #  2     ecut=    80.00 Ry     beta= 0.40
     Davidson diagonalization with overlap
     ethr =  1.00E-02,  avg # of iterations =  4.0

     total cpu time spent up to now is       21.3 secs

     total energy              =   -1085.76352252 Ry
     Harris-Foulkes estimate   =   -1093.96306205 Ry
     estimated scf accuracy    <       9.31372504 Ry

     iteration #  3     ecut=    80.00 Ry     beta= 0.40
     Davidson diagonalization with overlap
     ethr =  1.00E-02,  avg # of iterations =  3.0

     total cpu time spent up to now is       27.2 secs

     total energy              =   -1089.69361815 Ry
     Harris-Foulkes estimate   =   -1095.49971988 Ry
     estimated scf accuracy    <      56.16607694 Ry

     iteration #  4     ecut=    80.00 Ry     beta= 0.40
     Davidson diagonalization with overlap
     ethr =  1.00E-02,  avg # of iterations =  1.0

     negative rho (up, down):  5.545E+00 0.000E+00

     total cpu time spent up to now is       32.0 secs

     total energy              =   -1310.96231543 Ry
     Harris-Foulkes estimate   =   -1089.70971870 Ry
     estimated scf accuracy    <      49.52453167 Ry

     iteration #  5     ecut=    80.00 Ry     beta= 0.40
     Davidson diagonalization with overlap
     ethr =  1.00E-02,  avg # of iterations = 10.9

     negative rho (up, down):  9.117E-01 0.000E+00

     total cpu time spent up to now is       43.8 secs

     total energy              =   -1149.17529566 Ry
     Harris-Foulkes estimate   =   -1350.86405077 Ry
     estimated scf accuracy    <     379.66090297 Ry

     iteration #  6     ecut=    80.00 Ry     beta= 0.40
     Davidson diagonalization with overlap
     ethr =  1.00E-02,  avg # of iterations =  9.1

     total cpu time spent up to now is       53.3 secs

     total energy              =   -1059.25997062 Ry
     Harris-Foulkes estimate   =   -1153.39969953 Ry
     estimated scf accuracy    <     161.52157363 Ry

     iteration #  7     ecut=    80.00 Ry     beta= 0.40
     Davidson diagonalization with overlap
     ethr =  1.00E-02,  avg # of iterations =  7.1

     negative rho (up, down):  4.215E-05 0.000E+00

     total cpu time spent up to now is       62.5 secs

     total energy              =   -1107.12996252 Ry
     Harris-Foulkes estimate   =   -1091.97104590 Ry
     estimated scf accuracy    <       6.37276213 Ry

     iteration #  8     ecut=    80.00 Ry     beta= 0.40
     Davidson diagonalization with overlap
     ethr =  1.00E-02,  avg # of iterations =  7.0

     negative rho (up, down):  3.821E-05 0.000E+00

     total cpu time spent up to now is       70.3 secs

     total energy              =   -1109.31528628 Ry
     Harris-Foulkes estimate   =   -1109.27812290 Ry
     estimated scf accuracy    <      31.12081884 Ry

     iteration #  9     ecut=    80.00 Ry     beta= 0.40
     Davidson diagonalization with overlap
     ethr =  1.00E-02,  avg # of iterations =  1.0

     negative rho (up, down):  4.320E-05 0.000E+00

     total cpu time spent up to now is       73.8 secs

     total energy              =   -1108.97852326 Ry
     Harris-Foulkes estimate   =   -1109.31697735 Ry
     estimated scf accuracy    <      31.16066195 Ry

     iteration # 10     ecut=    80.00 Ry     beta= 0.40
     Davidson diagonalization with overlap
     ethr =  1.00E-02,  avg # of iterations =  1.0

     negative rho (up, down):  1.046E-02 0.000E+00

     total cpu time spent up to now is       77.4 secs

     total energy              =   -1115.79720368 Ry
     Harris-Foulkes estimate   =   -1108.97891646 Ry
     estimated scf accuracy    <      30.76231685 Ry

     iteration # 11     ecut=    80.00 Ry     beta= 0.40
     Davidson diagonalization with overlap
     ethr =  1.00E-02,  avg # of iterations =  1.0

     negative rho (up, down):  8.257E-02 0.000E+00

     total cpu time spent up to now is       80.8 secs

     total energy              =   -1086.97762780 Ry
     Harris-Foulkes estimate   =   -1115.82989850 Ry
     estimated scf accuracy    <      38.87317345 Ry

     iteration # 12     ecut=    80.00 Ry     beta= 0.40
     Davidson diagonalization with overlap
     ethr =  1.00E-02,  avg # of iterations =  4.0

     negative rho (up, down):  2.642E-01 0.000E+00

     total cpu time spent up to now is       86.5 secs

     total energy              =   -1086.97972810 Ry
     Harris-Foulkes estimate   =   -1089.55962479 Ry
     estimated scf accuracy    <       3.26449026 Ry

     iteration # 13     ecut=    80.00 Ry     beta= 0.40
     Davidson diagonalization with overlap
     ethr =  1.00E-02,  avg # of iterations =  2.0

     negative rho (up, down):  3.838E-01 0.000E+00

     total cpu time spent up to now is       90.8 secs

     total energy              =   -1089.94058235 Ry
     Harris-Foulkes estimate   =   -1088.49989892 Ry
     estimated scf accuracy    <       1.05368341 Ry

     iteration # 14     ecut=    80.00 Ry     beta= 0.40
     Davidson diagonalization with overlap
     ethr =  1.00E-02,  avg # of iterations =  6.0

     negative rho (up, down):  1.373E-01 0.000E+00

     total cpu time spent up to now is       97.9 secs

     total energy              =   -1076.11752586 Ry
     Harris-Foulkes estimate   =   -1099.13096713 Ry
     estimated scf accuracy    <      60.29175304 Ry

     iteration # 15     ecut=    80.00 Ry     beta= 0.40
     Davidson diagonalization with overlap
     ethr =  1.00E-02,  avg # of iterations =  4.0

     negative rho (up, down):  7.628E-03 0.000E+00

     total cpu time spent up to now is      104.4 secs

     total energy              =   -1095.32427942 Ry
     Harris-Foulkes estimate   =   -1089.90770984 Ry
     estimated scf accuracy    <       3.58401306 Ry

     iteration # 16     ecut=    80.00 Ry     beta= 0.40
     Davidson diagonalization with overlap
     ethr =  1.00E-02,  avg # of iterations =  6.0

     negative rho (up, down):  2.240E-01 0.000E+00

     total cpu time spent up to now is      111.0 secs

     total energy              =   -1087.11418312 Ry
     Harris-Foulkes estimate   =   -1095.94284394 Ry
     estimated scf accuracy    <      13.88168232 Ry

     iteration # 17     ecut=    80.00 Ry     beta= 0.40
     Davidson diagonalization with overlap
     ethr =  1.00E-02,  avg # of iterations =  2.2

     negative rho (up, down):  1.341E-03 0.000E+00

     total cpu time spent up to now is      116.0 secs

     total energy              =   -1092.03063680 Ry
     Harris-Foulkes estimate   =   -1088.52774991 Ry
     estimated scf accuracy    <       1.92768459 Ry

     iteration # 18     ecut=    80.00 Ry     beta= 0.40
     Davidson diagonalization with overlap
     ethr =  1.00E-02,  avg # of iterations =  2.0

     negative rho (up, down):  2.620E-06 0.000E+00

     total cpu time spent up to now is      120.4 secs

     total energy              =   -1091.33515276 Ry
     Harris-Foulkes estimate   =   -1092.16754555 Ry
     estimated scf accuracy    <       6.48154230 Ry

     iteration # 19     ecut=    80.00 Ry     beta= 0.40
     Davidson diagonalization with overlap
     ethr =  1.00E-02,  avg # of iterations =  1.0

     negative rho (up, down):  4.773E-04 0.000E+00

     total cpu time spent up to now is      124.0 secs

     total energy              =   -1092.24395137 Ry
     Harris-Foulkes estimate   =   -1091.34684356 Ry
     estimated scf accuracy    <       5.38857998 Ry

     iteration # 20     ecut=    80.00 Ry     beta= 0.40
     Davidson diagonalization with overlap
     ethr =  1.00E-02,  avg # of iterations =  1.0

     negative rho (up, down):  3.624E-04 0.000E+00

     total cpu time spent up to now is      127.7 secs

     total energy              =   -1090.26034863 Ry
     Harris-Foulkes estimate   =   -1092.25420217 Ry
     estimated scf accuracy    <       6.66361034 Ry

     iteration # 21     ecut=    80.00 Ry     beta= 0.40
     Davidson diagonalization with overlap
     ethr =  1.00E-02,  avg # of iterations =  1.0

     negative rho (up, down):  1.246E-03 0.000E+00

     total cpu time spent up to now is      131.3 secs

     total energy              =   -1089.91698453 Ry
     Harris-Foulkes estimate   =   -1090.31275235 Ry
     estimated scf accuracy    <       4.10656917 Ry

     iteration # 22     ecut=    80.00 Ry     beta= 0.40
     Davidson diagonalization with overlap
     ethr =  1.00E-02,  avg # of iterations =  1.0

     negative rho (up, down):  3.001E-05 0.000E+00

     total cpu time spent up to now is      136.3 secs

     total energy              =   -1092.43764692 Ry
     Harris-Foulkes estimate   =   -1089.92157950 Ry
     estimated scf accuracy    <       3.60287271 Ry

     iteration # 23     ecut=    80.00 Ry     beta= 0.40
     Davidson diagonalization with overlap
     ethr =  1.00E-02,  avg # of iterations =  1.0

     negative rho (up, down):  5.684E-04 0.000E+00

     total cpu time spent up to now is      140.1 secs

     total energy              =   -1086.35697284 Ry
     Harris-Foulkes estimate   =   -1092.51538011 Ry
     estimated scf accuracy    <       6.95633113 Ry

     iteration # 24     ecut=    80.00 Ry     beta= 0.40
     Davidson diagonalization with overlap
     ethr =  1.00E-02,  avg # of iterations =  5.0

     negative rho (up, down):  1.804E-03 0.000E+00

     total cpu time spent up to now is      146.9 secs

     total energy              =   -1075.53233817 Ry
     Harris-Foulkes estimate   =   -1095.71208800 Ry
     estimated scf accuracy    <      56.80548445 Ry

     iteration # 25     ecut=    80.00 Ry     beta= 0.40
     Davidson diagonalization with overlap
     ethr =  1.00E-02,  avg # of iterations =  2.0

     negative rho (up, down):  2.532E-03 0.000E+00

     total cpu time spent up to now is      151.8 secs

     total energy              =   -1090.46874027 Ry
     Harris-Foulkes estimate   =   -1090.11247035 Ry
     estimated scf accuracy    <       3.87787688 Ry

     iteration # 26     ecut=    80.00 Ry     beta= 0.40
     Davidson diagonalization with overlap
     ethr =  1.00E-02,  avg # of iterations =  1.0

     negative rho (up, down):  5.722E-04 0.000E+00

     total cpu time spent up to now is      155.5 secs

     total energy              =   -1089.57207358 Ry
     Harris-Foulkes estimate   =   -1090.48010038 Ry
     estimated scf accuracy    <       4.32250958 Ry

     iteration # 27     ecut=    80.00 Ry     beta= 0.40
     Davidson diagonalization with overlap
     ethr =  1.00E-02,  avg # of iterations =  1.0

     negative rho (up, down):  1.783E-03 0.000E+00

     total cpu time spent up to now is      159.3 secs

     total energy              =   -1092.97741674 Ry
     Harris-Foulkes estimate   =   -1089.58119058 Ry
     estimated scf accuracy    <       3.17501913 Ry

     iteration # 28     ecut=    80.00 Ry     beta= 0.40
     Davidson diagonalization with overlap
     ethr =  1.00E-02,  avg # of iterations =  1.0

     negative rho (up, down):  8.352E-04 0.000E+00

     total cpu time spent up to now is      163.4 secs

     total energy              =   -1091.00592171 Ry
     Harris-Foulkes estimate   =   -1093.10578424 Ry
     estimated scf accuracy    <       8.85782074 Ry

     iteration # 29     ecut=    80.00 Ry     beta= 0.40
     Davidson diagonalization with overlap
     ethr =  1.00E-02,  avg # of iterations =  1.0

     negative rho (up, down):  6.897E-04 0.000E+00

     total cpu time spent up to now is      167.4 secs

     total energy              =   -1090.67372850 Ry
     Harris-Foulkes estimate   =   -1091.17143017 Ry
     estimated scf accuracy    <       5.24389006 Ry

     iteration # 30     ecut=    80.00 Ry     beta= 0.40
     Davidson diagonalization with overlap
     ethr =  1.00E-02,  avg # of iterations =  1.0

     negative rho (up, down):  7.072E-04 0.000E+00

     total cpu time spent up to now is      170.9 secs

     total energy              =   -1091.01893804 Ry
     Harris-Foulkes estimate   =   -1090.67949249 Ry
     estimated scf accuracy    <       4.59760934 Ry

     iteration # 31     ecut=    80.00 Ry     beta= 0.40
     Davidson diagonalization with overlap
     ethr =  1.00E-02,  avg # of iterations =  1.0

     negative rho (up, down):  2.016E-03 0.000E+00

     total cpu time spent up to now is      174.6 secs

     total energy              =   -1090.66101617 Ry
     Harris-Foulkes estimate   =   -1091.02062112 Ry
     estimated scf accuracy    <       5.00663267 Ry

     iteration # 32     ecut=    80.00 Ry     beta= 0.40
     Davidson diagonalization with overlap
     ethr =  1.00E-02,  avg # of iterations =  1.0

     negative rho (up, down):  1.100E-03 0.000E+00

     total cpu time spent up to now is      178.3 secs

     total energy              =   -1090.52486382 Ry
     Harris-Foulkes estimate   =   -1090.66290920 Ry
     estimated scf accuracy    <       4.56840353 Ry

     iteration # 33     ecut=    80.00 Ry     beta= 0.40
     Davidson diagonalization with overlap
     ethr =  1.00E-02,  avg # of iterations =  1.0

     negative rho (up, down):  8.739E-04 0.000E+00

     total cpu time spent up to now is      182.2 secs

     total energy              =   -1086.77427380 Ry
     Harris-Foulkes estimate   =   -1090.52548675 Ry
     estimated scf accuracy    <       4.38798041 Ry

     iteration # 34     ecut=    80.00 Ry     beta= 0.40
     Davidson diagonalization with overlap
     ethr =  1.00E-02,  avg # of iterations =  3.0

     negative rho (up, down):  6.406E-04 0.000E+00

     total cpu time spent up to now is      187.0 secs

     total energy              =   -1075.69369124 Ry
     Harris-Foulkes estimate   =   -1098.00744247 Ry
     estimated scf accuracy    <      60.22143412 Ry

     iteration # 35     ecut=    80.00 Ry     beta= 0.40
     Davidson diagonalization with overlap
     ethr =  1.00E-02,  avg # of iterations =  2.0

     negative rho (up, down):  1.640E-04 0.000E+00

     total cpu time spent up to now is      192.7 secs

     total energy              =   -1089.17015774 Ry
     Harris-Foulkes estimate   =   -1090.02035527 Ry
     estimated scf accuracy    <       3.71842941 Ry

     iteration # 36     ecut=    80.00 Ry     beta= 0.40
     Davidson diagonalization with overlap
     ethr =  1.00E-02,  avg # of iterations =  1.0

     negative rho (up, down):  3.048E-04 0.000E+00

     total cpu time spent up to now is      197.4 secs

     total energy              =   -1089.27734408 Ry
     Harris-Foulkes estimate   =   -1089.17882857 Ry
     estimated scf accuracy    <       2.67236956 Ry

     iteration # 37     ecut=    80.00 Ry     beta= 0.40
     Davidson diagonalization with overlap
     ethr =  1.00E-02,  avg # of iterations =  1.0

     negative rho (up, down):  9.873E-04 0.000E+00

     total cpu time spent up to now is      201.4 secs

     total energy              =   -1087.23378815 Ry
     Harris-Foulkes estimate   =   -1089.27874777 Ry
     estimated scf accuracy    <       2.78618209 Ry

     iteration # 38     ecut=    80.00 Ry     beta= 0.40
     Davidson diagonalization with overlap
     ethr =  1.00E-02,  avg # of iterations =  2.0

     negative rho (up, down):  8.517E-05 0.000E+00

     total cpu time spent up to now is      205.8 secs

     total energy              =   -1077.06033316 Ry
     Harris-Foulkes estimate   =   -1089.57059765 Ry
     estimated scf accuracy    <      48.12986560 Ry

     iteration # 39     ecut=    80.00 Ry     beta= 0.40
     Davidson diagonalization with overlap
     ethr =  1.00E-02,  avg # of iterations =  2.0

     negative rho (up, down):  1.945E-04 0.000E+00

     total cpu time spent up to now is      210.4 secs

     total energy              =   -1089.86880399 Ry
     Harris-Foulkes estimate   =   -1089.68760676 Ry
     estimated scf accuracy    <       3.29704173 Ry

     iteration # 40     ecut=    80.00 Ry     beta= 0.40
     Davidson diagonalization with overlap
     ethr =  1.00E-02,  avg # of iterations =  1.0

     negative rho (up, down):  6.075E-03 0.000E+00

     total cpu time spent up to now is      214.3 secs

     total energy              =   -1087.01506570 Ry
     Harris-Foulkes estimate   =   -1089.87139882 Ry
     estimated scf accuracy    <       3.52134119 Ry

     iteration # 41     ecut=    80.00 Ry     beta= 0.40
     Davidson diagonalization with overlap
     ethr =  1.00E-02,  avg # of iterations =  2.0

     negative rho (up, down):  6.703E-03 0.000E+00

     total cpu time spent up to now is      218.7 secs

     total energy              =   -1090.26112887 Ry
     Harris-Foulkes estimate   =   -1091.93221108 Ry
     estimated scf accuracy    <      51.26062895 Ry

     iteration # 42     ecut=    80.00 Ry     beta= 0.40
     Davidson diagonalization with overlap
     ethr =  1.00E-02,  avg # of iterations =  1.0

     negative rho (up, down):  5.341E-03 0.000E+00

     total cpu time spent up to now is      222.4 secs

     total energy              =   -1086.59221321 Ry
     Harris-Foulkes estimate   =   -1090.26854001 Ry
     estimated scf accuracy    <      49.23514098 Ry

     iteration # 43     ecut=    80.00 Ry     beta= 0.40
     Davidson diagonalization with overlap
     ethr =  1.00E-02,  avg # of iterations =  1.0

     negative rho (up, down):  1.717E-03 0.000E+00

     total cpu time spent up to now is      226.0 secs

     total energy              =   -1087.99899238 Ry
     Harris-Foulkes estimate   =   -1088.10656933 Ry
     estimated scf accuracy    <       0.15486978 Ry

     iteration # 44     ecut=    80.00 Ry     beta= 0.40
     Davidson diagonalization with overlap
     ethr =  1.72E-03,  avg # of iterations =  1.0

     negative rho (up, down):  3.565E-04 0.000E+00

     total cpu time spent up to now is      229.6 secs

     total energy              =   -1087.94232539 Ry
     Harris-Foulkes estimate   =   -1088.03344196 Ry
     estimated scf accuracy    <       1.70702904 Ry

     iteration # 45     ecut=    80.00 Ry     beta= 0.40
     Davidson diagonalization with overlap
     ethr =  1.72E-03,  avg # of iterations =  1.0

     negative rho (up, down):  2.401E-04 0.000E+00

     total cpu time spent up to now is      233.2 secs

     total energy              =   -1088.01017516 Ry
     Harris-Foulkes estimate   =   -1088.01977842 Ry
     estimated scf accuracy    <       0.03984290 Ry

     iteration # 46     ecut=    80.00 Ry     beta= 0.40
     Davidson diagonalization with overlap
     ethr =  4.43E-04,  avg # of iterations =  1.0

     negative rho (up, down):  1.203E-04 0.000E+00

     total cpu time spent up to now is      236.7 secs

     total energy              =   -1088.00834775 Ry
     Harris-Foulkes estimate   =   -1088.01482571 Ry
     estimated scf accuracy    <       0.45013254 Ry

     iteration # 47     ecut=    80.00 Ry     beta= 0.40
     Davidson diagonalization with overlap
     ethr =  4.43E-04,  avg # of iterations =  1.0

     negative rho (up, down):  1.114E-04 0.000E+00

     total cpu time spent up to now is      241.5 secs

     total energy              =   -1088.02470103 Ry
     Harris-Foulkes estimate   =   -1088.01160213 Ry
     estimated scf accuracy    <       0.00374272 Ry

     iteration # 48     ecut=    80.00 Ry     beta= 0.40
     Davidson diagonalization with overlap
     ethr =  4.16E-05,  avg # of iterations =  3.0

     negative rho (up, down):  2.113E-04 0.000E+00

     total cpu time spent up to now is      246.1 secs

     total energy              =   -1088.32629893 Ry
     Harris-Foulkes estimate   =   -1088.18518844 Ry
     estimated scf accuracy    <       1.37464009 Ry

     iteration # 49     ecut=    80.00 Ry     beta= 0.40
     Davidson diagonalization with overlap
     ethr =  4.16E-05,  avg # of iterations =  2.0

     negative rho (up, down):  3.061E-04 0.000E+00

     total cpu time spent up to now is      250.1 secs

     total energy              =   -1088.36895021 Ry
     Harris-Foulkes estimate   =   -1088.32687911 Ry
     estimated scf accuracy    <       1.55878326 Ry

     iteration # 50     ecut=    80.00 Ry     beta= 0.40
     Davidson diagonalization with overlap
     ethr =  4.16E-05,  avg # of iterations =  1.0

     negative rho (up, down):  1.382E-03 0.000E+00

     total cpu time spent up to now is      253.4 secs

     total energy              =   -1087.89053908 Ry
     Harris-Foulkes estimate   =   -1088.36903406 Ry
     estimated scf accuracy    <       1.61255722 Ry

     iteration # 51     ecut=    80.00 Ry     beta= 0.40
     Davidson diagonalization with overlap
     ethr =  4.16E-05,  avg # of iterations =  4.0

     negative rho (up, down):  1.168E-03 0.000E+00

     total cpu time spent up to now is      258.6 secs

     total energy              =   -1088.54560689 Ry
     Harris-Foulkes estimate   =   -1088.03335578 Ry
     estimated scf accuracy    <       0.05645564 Ry

     iteration # 52     ecut=    80.00 Ry     beta= 0.40
     Davidson diagonalization with overlap
     ethr =  4.16E-05,  avg # of iterations =  8.0

     negative rho (up, down):  1.199E-03 0.000E+00

     total cpu time spent up to now is      267.4 secs

     total energy              =   -1088.96984848 Ry
     Harris-Foulkes estimate   =   -1091.92695712 Ry
     estimated scf accuracy    <      51.66835377 Ry

     iteration # 53     ecut=    80.00 Ry     beta= 0.40
     Davidson diagonalization with overlap
     ethr =  4.16E-05,  avg # of iterations =  4.0

     negative rho (up, down):  2.910E-04 0.000E+00

     total cpu time spent up to now is      273.1 secs

     total energy              =   -1080.15736739 Ry
     Harris-Foulkes estimate   =   -1088.97752104 Ry
     estimated scf accuracy    <      47.87015032 Ry

     iteration # 54     ecut=    80.00 Ry     beta= 0.40
     Davidson diagonalization with overlap
     ethr =  4.16E-05,  avg # of iterations =  8.7

     negative rho (up, down):  1.815E-04 0.000E+00

     total cpu time spent up to now is      283.7 secs

     total energy              =   -1088.69317668 Ry
     Harris-Foulkes estimate   =   -1088.83784633 Ry
     estimated scf accuracy    <       2.21958442 Ry

     iteration # 55     ecut=    80.00 Ry     beta= 0.40
     Davidson diagonalization with overlap
     ethr =  4.16E-05,  avg # of iterations =  2.0

     negative rho (up, down):  1.413E-04 0.000E+00

     total cpu time spent up to now is      287.6 secs

     total energy              =   -1088.01738871 Ry
     Harris-Foulkes estimate   =   -1088.69363065 Ry
     estimated scf accuracy    <       2.03302856 Ry

     iteration # 56     ecut=    80.00 Ry     beta= 0.40
     Davidson diagonalization with overlap
     ethr =  4.16E-05,  avg # of iterations =  4.9

     negative rho (up, down):  2.219E-04 0.000E+00

     total cpu time spent up to now is      294.2 secs

     total energy              =   -1087.72706989 Ry
     Harris-Foulkes estimate   =   -1088.02754184 Ry
     estimated scf accuracy    <       1.70225110 Ry

     iteration # 57     ecut=    80.00 Ry     beta= 0.40
     Davidson diagonalization with overlap
     ethr =  4.16E-05,  avg # of iterations =  3.6

     negative rho (up, down):  2.243E-04 0.000E+00

     total cpu time spent up to now is      299.2 secs

     total energy              =   -1088.04480070 Ry
     Harris-Foulkes estimate   =   -1088.06313374 Ry
     estimated scf accuracy    <       0.09627817 Ry

     iteration # 58     ecut=    80.00 Ry     beta= 0.40
     Davidson diagonalization with overlap
     ethr =  4.16E-05,  avg # of iterations =  1.0

     negative rho (up, down):  1.975E-04 0.000E+00

     total cpu time spent up to now is      302.5 secs

     total energy              =   -1088.09080704 Ry
     Harris-Foulkes estimate   =   -1088.04504602 Ry
     estimated scf accuracy    <       0.07274627 Ry

     iteration # 59     ecut=    80.00 Ry     beta= 0.40
     Davidson diagonalization with overlap
     ethr =  4.16E-05,  avg # of iterations =  2.0

     negative rho (up, down):  2.344E-04 0.000E+00

     total cpu time spent up to now is      306.7 secs

     total energy              =   -1088.13944596 Ry
     Harris-Foulkes estimate   =   -1088.09178371 Ry
     estimated scf accuracy    <       0.13388823 Ry

     iteration # 60     ecut=    80.00 Ry     beta= 0.40
     Davidson diagonalization with overlap
     ethr =  4.16E-05,  avg # of iterations =  3.0

     negative rho (up, down):  1.955E-04 0.000E+00

     total cpu time spent up to now is      311.2 secs

     total energy              =   -1088.08258881 Ry
     Harris-Foulkes estimate   =   -1088.14022980 Ry
     estimated scf accuracy    <       0.19825613 Ry

     iteration # 61     ecut=    80.00 Ry     beta= 0.40
     Davidson diagonalization with overlap
     ethr =  4.16E-05,  avg # of iterations =  2.0

     negative rho (up, down):  1.868E-04 0.000E+00

     total cpu time spent up to now is      315.4 secs

     total energy              =   -1088.21691972 Ry
     Harris-Foulkes estimate   =   -1088.08363999 Ry
     estimated scf accuracy    <       0.12358229 Ry

     iteration # 62     ecut=    80.00 Ry     beta= 0.40
     Davidson diagonalization with overlap
     ethr =  4.16E-05,  avg # of iterations =  3.9

     negative rho (up, down):  1.854E-04 0.000E+00

     total cpu time spent up to now is      320.8 secs

     total energy              =   -1088.13374127 Ry
     Harris-Foulkes estimate   =   -1088.28580503 Ry
     estimated scf accuracy    <      29.85168812 Ry

     iteration # 63     ecut=    80.00 Ry     beta= 0.40
     Davidson diagonalization with overlap
     ethr =  4.16E-05,  avg # of iterations =  1.0

     negative rho (up, down):  4.086E-04 0.000E+00

     total cpu time spent up to now is      324.1 secs

     total energy              =   -1088.55780222 Ry
     Harris-Foulkes estimate   =   -1088.20451491 Ry
     estimated scf accuracy    <       0.53588380 Ry

     iteration # 64     ecut=    80.00 Ry     beta= 0.40
     Davidson diagonalization with overlap
     ethr =  4.16E-05,  avg # of iterations =  4.6

     negative rho (up, down):  2.231E-04 0.000E+00

     total cpu time spent up to now is      330.6 secs

     total energy              =   -1084.09219168 Ry
     Harris-Foulkes estimate   =   -1091.00748496 Ry
     estimated scf accuracy    <      50.42620204 Ry

     iteration # 65     ecut=    80.00 Ry     beta= 0.40
     Davidson diagonalization with overlap
     ethr =  4.16E-05,  avg # of iterations =  5.8

     negative rho (up, down):  2.548E-04 0.000E+00

     total cpu time spent up to now is      338.0 secs

     total energy              =   -1087.80495173 Ry
     Harris-Foulkes estimate   =   -1088.03477494 Ry
     estimated scf accuracy    <       1.68931156 Ry

     iteration # 66     ecut=    80.00 Ry     beta= 0.40
     Davidson diagonalization with overlap
     ethr =  4.16E-05,  avg # of iterations =  2.0

     negative rho (up, down):  2.907E-04 0.000E+00

     total cpu time spent up to now is      342.2 secs

     total energy              =   -1088.17477624 Ry
     Harris-Foulkes estimate   =   -1088.04515172 Ry
     estimated scf accuracy    <       0.07326486 Ry

     iteration # 67     ecut=    80.00 Ry     beta= 0.40
     Davidson diagonalization with overlap
     ethr =  4.16E-05,  avg # of iterations =  4.0

     negative rho (up, down):  2.922E-04 0.000E+00

     total cpu time spent up to now is      347.3 secs

     total energy              =   -1088.17869601 Ry
     Harris-Foulkes estimate   =   -1088.18145232 Ry
     estimated scf accuracy    <       0.25835197 Ry

     iteration # 68     ecut=    80.00 Ry     beta= 0.40
     Davidson diagonalization with overlap
     ethr =  4.16E-05,  avg # of iterations =  1.0

     negative rho (up, down):  3.283E-04 0.000E+00

     total cpu time spent up to now is      350.7 secs

     total energy              =   -1088.16874830 Ry
     Harris-Foulkes estimate   =   -1088.17874403 Ry
     estimated scf accuracy    <       0.25417665 Ry

     iteration # 69     ecut=    80.00 Ry     beta= 0.40
     Davidson diagonalization with overlap
     ethr =  4.16E-05,  avg # of iterations =  1.0

     negative rho (up, down):  3.788E-04 0.000E+00

     total cpu time spent up to now is      354.0 secs

     total energy              =   -1088.05776707 Ry
     Harris-Foulkes estimate   =   -1088.16880038 Ry
     estimated scf accuracy    <       0.23974946 Ry

     iteration # 70     ecut=    80.00 Ry     beta= 0.40
     Davidson diagonalization with overlap
     ethr =  4.16E-05,  avg # of iterations =  3.0

     negative rho (up, down):  3.849E-04 0.000E+00

     total cpu time spent up to now is      358.7 secs

     total energy              =   -1088.09461600 Ry
     Harris-Foulkes estimate   =   -1088.06208671 Ry
     estimated scf accuracy    <       0.09607042 Ry

     iteration # 71     ecut=    80.00 Ry     beta= 0.40
     Davidson diagonalization with overlap
     ethr =  4.16E-05,  avg # of iterations =  2.0

     negative rho (up, down):  3.250E-04 0.000E+00

     total cpu time spent up to now is      362.5 secs

     total energy              =   -1088.35310646 Ry
     Harris-Foulkes estimate   =   -1088.09507535 Ry
     estimated scf accuracy    <       0.13935937 Ry

     iteration # 72     ecut=    80.00 Ry     beta= 0.40
     Davidson diagonalization with overlap
     ethr =  4.16E-05,  avg # of iterations =  5.0

     negative rho (up, down):  3.639E-04 0.000E+00

     total cpu time spent up to now is      369.0 secs

     total energy              =   -1088.65971429 Ry
     Harris-Foulkes estimate   =   -1089.88434554 Ry
     estimated scf accuracy    <      48.96205241 Ry

     iteration # 73     ecut=    80.00 Ry     beta= 0.40
     Davidson diagonalization with overlap
     ethr =  4.16E-05,  avg # of iterations =  2.0

     negative rho (up, down):  3.175E-04 0.000E+00

     total cpu time spent up to now is      373.1 secs

     total energy              =   -1087.38667759 Ry
     Harris-Foulkes estimate   =   -1088.66132731 Ry
     estimated scf accuracy    <      47.33598678 Ry

     iteration # 74     ecut=    80.00 Ry     beta= 0.40
     Davidson diagonalization with overlap
     ethr =  4.16E-05,  avg # of iterations =  3.0

     negative rho (up, down):  1.257E-01 0.000E+00

     total cpu time spent up to now is      377.6 secs

     total energy              =   -1094.08864046 Ry
     Harris-Foulkes estimate   =   -1088.15566480 Ry
     estimated scf accuracy    <       0.22231316 Ry

     iteration # 75     ecut=    80.00 Ry     beta= 0.40
     Davidson diagonalization with overlap
     ethr =  4.16E-05,  avg # of iterations = 12.6

     negative rho (up, down):  2.979E-02 0.000E+00

     total cpu time spent up to now is      391.4 secs

     total energy              =   -1094.71619198 Ry
     Harris-Foulkes estimate   =   -1102.63913899 Ry
     estimated scf accuracy    <      22.09658925 Ry

     iteration # 76     ecut=    80.00 Ry     beta= 0.40
     Davidson diagonalization with overlap
     ethr =  4.16E-05,  avg # of iterations =  5.1

     negative rho (up, down):  7.477E-03 0.000E+00

     total cpu time spent up to now is      398.9 secs

     total energy              =   -1090.21616191 Ry
     Harris-Foulkes estimate   =   -1094.81633104 Ry
     estimated scf accuracy    <      12.55813204 Ry

     iteration # 77     ecut=    80.00 Ry     beta= 0.40
     Davidson diagonalization with overlap
     ethr =  4.16E-05,  avg # of iterations = 12.8

     negative rho (up, down):  5.781E-04 0.000E+00

     total cpu time spent up to now is      410.5 secs

     total energy              =   -1087.99224240 Ry
     Harris-Foulkes estimate   =   -1090.67542089 Ry
     estimated scf accuracy    <       4.58127463 Ry

     iteration # 78     ecut=    80.00 Ry     beta= 0.40
     Davidson diagonalization with overlap
     ethr =  4.16E-05,  avg # of iterations =  7.2

     negative rho (up, down):  4.047E-04 0.000E+00

     total cpu time spent up to now is      419.6 secs

     total energy              =   -1087.69198912 Ry
     Harris-Foulkes estimate   =   -1088.10431534 Ry
     estimated scf accuracy    <       1.25231024 Ry

     iteration # 79     ecut=    80.00 Ry     beta= 0.40
     Davidson diagonalization with overlap
     ethr =  4.16E-05,  avg # of iterations =  4.8

     negative rho (up, down):  3.957E-04 0.000E+00

     total cpu time spent up to now is      426.4 secs

     total energy              =   -1088.04942101 Ry
     Harris-Foulkes estimate   =   -1088.09769373 Ry
     estimated scf accuracy    <       0.14411388 Ry

     iteration # 80     ecut=    80.00 Ry     beta= 0.40
     Davidson diagonalization with overlap
     ethr =  4.16E-05,  avg # of iterations =  2.0

     negative rho (up, down):  3.934E-04 0.000E+00

     total cpu time spent up to now is      430.5 secs

     total energy              =   -1088.04530822 Ry
     Harris-Foulkes estimate   =   -1088.05086600 Ry
     estimated scf accuracy    <       0.08115115 Ry

     iteration # 81     ecut=    80.00 Ry     beta= 0.40
     Davidson diagonalization with overlap
     ethr =  4.16E-05,  avg # of iterations =  1.0

     negative rho (up, down):  3.709E-04 0.000E+00

     total cpu time spent up to now is      433.9 secs

     total energy              =   -1088.14669352 Ry
     Harris-Foulkes estimate   =   -1088.04535065 Ry
     estimated scf accuracy    <       0.07414811 Ry

     iteration # 82     ecut=    80.00 Ry     beta= 0.40
     Davidson diagonalization with overlap
     ethr =  4.16E-05,  avg # of iterations =  2.0

     negative rho (up, down):  2.618E-04 0.000E+00

     total cpu time spent up to now is      438.5 secs

     total energy              =   -1088.49737872 Ry
     Harris-Foulkes estimate   =   -1088.15067841 Ry
     estimated scf accuracy    <       0.21398865 Ry

     iteration # 83     ecut=    80.00 Ry     beta= 0.40
     Davidson diagonalization with overlap
     ethr =  4.16E-05,  avg # of iterations =  5.6

     negative rho (up, down):  3.101E-04 0.000E+00

     total cpu time spent up to now is      445.6 secs

     total energy              =   -1087.40797921 Ry
     Harris-Foulkes estimate   =   -1091.24186095 Ry
     estimated scf accuracy    <      50.69771003 Ry

     iteration # 84     ecut=    80.00 Ry     beta= 0.40
     Davidson diagonalization with overlap
     ethr =  4.16E-05,  avg # of iterations =  4.1

     negative rho (up, down):  3.157E-04 0.000E+00

     total cpu time spent up to now is      451.5 secs

     total energy              =   -1088.12357061 Ry
     Harris-Foulkes estimate   =   -1088.15833070 Ry
     estimated scf accuracy    <       0.22697014 Ry

     iteration # 85     ecut=    80.00 Ry     beta= 0.40
     Davidson diagonalization with overlap
     ethr =  4.16E-05,  avg # of iterations =  2.0

     negative rho (up, down):  3.802E-04 0.000E+00

     total cpu time spent up to now is      455.3 secs

     total energy              =   -1088.07653104 Ry
     Harris-Foulkes estimate   =   -1088.12402048 Ry
     estimated scf accuracy    <       0.17981378 Ry

     iteration # 86     ecut=    80.00 Ry     beta= 0.40
     Davidson diagonalization with overlap
     ethr =  4.16E-05,  avg # of iterations =  2.0

     negative rho (up, down):  3.526E-04 0.000E+00

     total cpu time spent up to now is      459.5 secs

     total energy              =   -1088.13891433 Ry
     Harris-Foulkes estimate   =   -1088.07743816 Ry
     estimated scf accuracy    <       0.11685062 Ry

     iteration # 87     ecut=    80.00 Ry     beta= 0.40
     Davidson diagonalization with overlap
     ethr =  4.16E-05,  avg # of iterations =  2.0

     negative rho (up, down):  7.121E-02 0.000E+00

     total cpu time spent up to now is      463.7 secs

     total energy              =   -1091.70335595 Ry
     Harris-Foulkes estimate   =   -1088.14036366 Ry
     estimated scf accuracy    <       0.20021781 Ry

     iteration # 88     ecut=    80.00 Ry     beta= 0.40
     Davidson diagonalization with overlap
     ethr =  4.16E-05,  avg # of iterations = 13.7

     negative rho (up, down):  4.484E-02 0.000E+00

     total cpu time spent up to now is      478.2 secs

     total energy              =   -1094.40583386 Ry
     Harris-Foulkes estimate   =   -1098.12799676 Ry
     estimated scf accuracy    <      16.72470361 Ry

     iteration # 89     ecut=    80.00 Ry     beta= 0.40
     Davidson diagonalization with overlap
     ethr =  4.16E-05,  avg # of iterations =  4.0

     negative rho (up, down):  5.788E-02 0.000E+00

     total cpu time spent up to now is      485.2 secs

     total energy              =   -1096.73766461 Ry
     Harris-Foulkes estimate   =   -1094.43927853 Ry
     estimated scf accuracy    <      12.04932062 Ry

     iteration # 90     ecut=    80.00 Ry     beta= 0.40
     Davidson diagonalization with overlap
     ethr =  4.16E-05,  avg # of iterations =  4.0

     negative rho (up, down):  7.092E-02 0.000E+00

     total cpu time spent up to now is      491.2 secs

     total energy              =   -1098.88107870 Ry
     Harris-Foulkes estimate   =   -1096.76092847 Ry
     estimated scf accuracy    <      15.06528626 Ry

     iteration # 91     ecut=    80.00 Ry     beta= 0.40
     Davidson diagonalization with overlap
     ethr =  4.16E-05,  avg # of iterations =  3.0

     negative rho (up, down):  5.456E-02 0.000E+00

     total cpu time spent up to now is      496.7 secs

     total energy              =   -1096.70015122 Ry
     Harris-Foulkes estimate   =   -1098.88988568 Ry
     estimated scf accuracy    <      17.63110847 Ry

     iteration # 92     ecut=    80.00 Ry     beta= 0.40
     Davidson diagonalization with overlap
     ethr =  4.16E-05,  avg # of iterations =  4.0

     negative rho (up, down):  3.766E-02 0.000E+00

     total cpu time spent up to now is      502.3 secs

     total energy              =   -1086.98871399 Ry
     Harris-Foulkes estimate   =   -1096.70910654 Ry
     estimated scf accuracy    <      14.99287202 Ry

     iteration # 93     ecut=    80.00 Ry     beta= 0.40
     Davidson diagonalization with overlap
     ethr =  4.16E-05,  avg # of iterations = 13.8

     negative rho (up, down):  2.567E-03 0.000E+00

     total cpu time spent up to now is      515.2 secs

     total energy              =   -1087.37103748 Ry
     Harris-Foulkes estimate   =   -1088.41101534 Ry
     estimated scf accuracy    <       1.69207793 Ry

     iteration # 94     ecut=    80.00 Ry     beta= 0.40
     Davidson diagonalization with overlap
     ethr =  4.16E-05,  avg # of iterations =  9.0

     negative rho (up, down):  1.204E-03 0.000E+00

     total cpu time spent up to now is      524.5 secs

     total energy              =   -1081.36352006 Ry
     Harris-Foulkes estimate   =   -1089.01888914 Ry
     estimated scf accuracy    <      47.81248102 Ry

     iteration # 95     ecut=    80.00 Ry     beta= 0.40
     Davidson diagonalization with overlap
     ethr =  4.16E-05,  avg # of iterations =  8.0

     negative rho (up, down):  5.483E-04 0.000E+00

     total cpu time spent up to now is      534.0 secs

     total energy              =   -1087.99816354 Ry
     Harris-Foulkes estimate   =   -1088.56220974 Ry
     estimated scf accuracy    <       1.85119602 Ry

     iteration # 96     ecut=    80.00 Ry     beta= 0.40
     Davidson diagonalization with overlap
     ethr =  4.16E-05,  avg # of iterations =  4.8

     negative rho (up, down):  6.125E-04 0.000E+00

     total cpu time spent up to now is      540.7 secs

     total energy              =   -1088.01977744 Ry
     Harris-Foulkes estimate   =   -1088.01226023 Ry
     estimated scf accuracy    <       0.00399772 Ry

     iteration # 97     ecut=    80.00 Ry     beta= 0.40
     Davidson diagonalization with overlap
     ethr =  4.16E-05,  avg # of iterations =  2.0

     negative rho (up, down):  6.486E-04 0.000E+00

     total cpu time spent up to now is      544.8 secs

     total energy              =   -1087.96647261 Ry
     Harris-Foulkes estimate   =   -1088.12928061 Ry
     estimated scf accuracy    <       1.28934301 Ry

     iteration # 98     ecut=    80.00 Ry     beta= 0.40
     Davidson diagonalization with overlap
     ethr =  4.16E-05,  avg # of iterations =  2.0

     negative rho (up, down):  7.218E-04 0.000E+00

     total cpu time spent up to now is      548.9 secs

     total energy              =   -1088.03888088 Ry
     Harris-Foulkes estimate   =   -1088.01904516 Ry
     estimated scf accuracy    <       0.03784889 Ry

     iteration # 99     ecut=    80.00 Ry     beta= 0.40
     Davidson diagonalization with overlap
     ethr =  4.16E-05,  avg # of iterations =  2.0

     negative rho (up, down):  6.178E-04 0.000E+00

     total cpu time spent up to now is      552.9 secs

     total energy              =   -1088.06105928 Ry
     Harris-Foulkes estimate   =   -1088.03931120 Ry
     estimated scf accuracy    <       0.06419016 Ry

     iteration #100     ecut=    80.00 Ry     beta= 0.40
     Davidson diagonalization with overlap
     ethr =  4.16E-05,  avg # of iterations =  1.7

     negative rho (up, down):  7.029E-04 0.000E+00

     total cpu time spent up to now is      556.5 secs

     total energy              =   -1088.10350932 Ry
     Harris-Foulkes estimate   =   -1088.06143736 Ry
     estimated scf accuracy    <       0.09330595 Ry

     iteration #101     ecut=    80.00 Ry     beta= 0.40
     Davidson diagonalization with overlap
     ethr =  4.16E-05,  avg # of iterations =  3.2

     negative rho (up, down):  3.654E-04 0.000E+00

     total cpu time spent up to now is      561.3 secs

     total energy              =   -1088.03162838 Ry
     Harris-Foulkes estimate   =   -1088.10451244 Ry
     estimated scf accuracy    <       0.15131689 Ry

     iteration #102     ecut=    80.00 Ry     beta= 0.40
     Davidson diagonalization with overlap
     ethr =  4.16E-05,  avg # of iterations =  2.0

     negative rho (up, down):  2.608E-04 0.000E+00

     total cpu time spent up to now is      565.8 secs

     total energy              =   -1088.01011596 Ry
     Harris-Foulkes estimate   =   -1088.03412141 Ry
     estimated scf accuracy    <       0.05881112 Ry

     iteration #103     ecut=    80.00 Ry     beta= 0.40
     Davidson diagonalization with overlap
     ethr =  4.16E-05,  avg # of iterations =  2.1

     negative rho (up, down):  1.160E-04 0.000E+00

     total cpu time spent up to now is      570.0 secs

     total energy              =   -1087.47226440 Ry
     Harris-Foulkes estimate   =   -1088.01800742 Ry
     estimated scf accuracy    <       0.78108432 Ry

     iteration #104     ecut=    80.00 Ry     beta= 0.40
     Davidson diagonalization with overlap
     ethr =  4.16E-05,  avg # of iterations =  7.3

     negative rho (up, down):  3.429E-04 0.000E+00

     total cpu time spent up to now is      577.7 secs

     total energy              =   -1083.61316167 Ry
     Harris-Foulkes estimate   =   -1089.94459319 Ry
     estimated scf accuracy    <      49.00177406 Ry

     iteration #105     ecut=    80.00 Ry     beta= 0.40
     Davidson diagonalization with overlap
     ethr =  4.16E-05,  avg # of iterations =  4.9

     negative rho (up, down):  3.431E-04 0.000E+00

     total cpu time spent up to now is      585.1 secs

     total energy              =   -1088.11337010 Ry
     Harris-Foulkes estimate   =   -1088.11950268 Ry
     estimated scf accuracy    <       1.27476310 Ry

     iteration #106     ecut=    80.00 Ry     beta= 0.40
     Davidson diagonalization with overlap
     ethr =  4.16E-05,  avg # of iterations =  1.0

     negative rho (up, down):  3.130E-04 0.000E+00

     total cpu time spent up to now is      588.6 secs

     total energy              =   -1088.07879749 Ry
     Harris-Foulkes estimate   =   -1088.11345208 Ry
     estimated scf accuracy    <       1.26686244 Ry

     iteration #107     ecut=    80.00 Ry     beta= 0.40
     Davidson diagonalization with overlap
     ethr =  4.16E-05,  avg # of iterations =  1.0

     negative rho (up, down):  2.884E-04 0.000E+00

     total cpu time spent up to now is      592.0 secs

     total energy              =   -1087.94476952 Ry
     Harris-Foulkes estimate   =   -1088.07887727 Ry
     estimated scf accuracy    <       1.22205722 Ry

     iteration #108     ecut=    80.00 Ry     beta= 0.40
     Davidson diagonalization with overlap
     ethr =  4.16E-05,  avg # of iterations =  2.0

     negative rho (up, down):  2.799E-04 0.000E+00

     total cpu time spent up to now is      595.9 secs

     total energy              =   -1088.02307054 Ry
     Harris-Foulkes estimate   =   -1088.02332491 Ry
     estimated scf accuracy    <       0.04422097 Ry

     iteration #109     ecut=    80.00 Ry     beta= 0.40
     Davidson diagonalization with overlap
     ethr =  4.16E-05,  avg # of iterations =  1.0

     negative rho (up, down):  3.042E-04 0.000E+00

     total cpu time spent up to now is      599.1 secs

     total energy              =   -1088.01016788 Ry
     Harris-Foulkes estimate   =   -1088.02309348 Ry
     estimated scf accuracy    <       0.04361550 Ry

     iteration #110     ecut=    80.00 Ry     beta= 0.40
     Davidson diagonalization with overlap
     ethr =  4.16E-05,  avg # of iterations =  1.0

     negative rho (up, down):  3.060E-04 0.000E+00

     total cpu time spent up to now is      602.4 secs

     total energy              =   -1088.02145557 Ry
     Harris-Foulkes estimate   =   -1088.02302358 Ry
     estimated scf accuracy    <       1.33442348 Ry

     iteration #111     ecut=    80.00 Ry     beta= 0.40
     Davidson diagonalization with overlap
     ethr =  4.16E-05,  avg # of iterations =  1.0

     negative rho (up, down):  3.092E-04 0.000E+00

     total cpu time spent up to now is      605.8 secs

     total energy              =   -1088.01391786 Ry
     Harris-Foulkes estimate   =   -1088.02151573 Ry
     estimated scf accuracy    <       1.17928972 Ry

     iteration #112     ecut=    80.00 Ry     beta= 0.40
     Davidson diagonalization with overlap
     ethr =  4.16E-05,  avg # of iterations =  1.0

     negative rho (up, down):  2.324E-04 0.000E+00

     total cpu time spent up to now is      609.1 secs

     total energy              =   -1087.91362767 Ry
     Harris-Foulkes estimate   =   -1088.01541781 Ry
     estimated scf accuracy    <       0.40275941 Ry

     iteration #113     ecut=    80.00 Ry     beta= 0.40
     Davidson diagonalization with overlap
     ethr =  4.16E-05,  avg # of iterations =  2.0

     negative rho (up, down):  1.940E-04 0.000E+00

     total cpu time spent up to now is      613.2 secs

     total energy              =   -1088.52319061 Ry
     Harris-Foulkes estimate   =   -1088.04720498 Ry
     estimated scf accuracy    <       0.07566267 Ry

     iteration #114     ecut=    80.00 Ry     beta= 0.40
     Davidson diagonalization with overlap
     ethr =  4.16E-05,  avg # of iterations =  7.0

     negative rho (up, down):  2.906E-04 0.000E+00

     total cpu time spent up to now is      621.0 secs

     total energy              =   -1084.57737823 Ry
     Harris-Foulkes estimate   =   -1091.66007804 Ry
     estimated scf accuracy    <      51.24194109 Ry

     iteration #115     ecut=    80.00 Ry     beta= 0.40
     Davidson diagonalization with overlap
     ethr =  4.16E-05,  avg # of iterations =  6.6

     negative rho (up, down):  2.864E-04 0.000E+00

     total cpu time spent up to now is      629.2 secs

     total energy              =   -1088.02192448 Ry
     Harris-Foulkes estimate   =   -1088.02104560 Ry
     estimated scf accuracy    <       0.04196101 Ry

     iteration #116     ecut=    80.00 Ry     beta= 0.40
     Davidson diagonalization with overlap
     ethr =  4.16E-05,  avg # of iterations =  1.0

     negative rho (up, down):  2.943E-04 0.000E+00

     total cpu time spent up to now is      632.6 secs

     total energy              =   -1088.01938655 Ry
     Harris-Foulkes estimate   =   -1088.02199405 Ry
     estimated scf accuracy    <       0.04308145 Ry

     iteration #117     ecut=    80.00 Ry     beta= 0.40
     Davidson diagonalization with overlap
     ethr =  4.16E-05,  avg # of iterations =  1.0

     negative rho (up, down):  2.966E-04 0.000E+00

     total cpu time spent up to now is      635.9 secs

     total energy              =   -1088.01358984 Ry
     Harris-Foulkes estimate   =   -1088.01942832 Ry
     estimated scf accuracy    <       0.03970932 Ry

     iteration #118     ecut=    80.00 Ry     beta= 0.40
     Davidson diagonalization with overlap
     ethr =  4.16E-05,  avg # of iterations =  1.0

     negative rho (up, down):  2.563E-04 0.000E+00

     total cpu time spent up to now is      639.3 secs

     total energy              =   -1088.02164534 Ry
     Harris-Foulkes estimate   =   -1088.01265011 Ry
     estimated scf accuracy    <       0.03047122 Ry

     iteration #119     ecut=    80.00 Ry     beta= 0.40
     Davidson diagonalization with overlap
     ethr =  4.16E-05,  avg # of iterations =  1.0

     negative rho (up, down):  2.476E-04 0.000E+00

     total cpu time spent up to now is      642.8 secs

     total energy              =   -1088.01788232 Ry
     Harris-Foulkes estimate   =   -1088.02300062 Ry
     estimated scf accuracy    <       0.04391466 Ry

     iteration #120     ecut=    80.00 Ry     beta= 0.40
     Davidson diagonalization with overlap
     ethr =  4.16E-05,  avg # of iterations =  1.0

     negative rho (up, down):  2.580E-04 0.000E+00

     total cpu time spent up to now is      646.3 secs

     total energy              =   -1088.02491771 Ry
     Harris-Foulkes estimate   =   -1088.01790946 Ry
     estimated scf accuracy    <       0.03878030 Ry

     iteration #121     ecut=    80.00 Ry     beta= 0.40
     Davidson diagonalization with overlap
     ethr =  4.16E-05,  avg # of iterations =  1.0

     negative rho (up, down):  1.190E-02 0.000E+00

     total cpu time spent up to now is      649.7 secs

     total energy              =   -1088.77021184 Ry
     Harris-Foulkes estimate   =   -1088.02484494 Ry
     estimated scf accuracy    <       0.04620090 Ry

     iteration #122     ecut=    80.00 Ry     beta= 0.40
     Davidson diagonalization with overlap
     ethr =  4.16E-05,  avg # of iterations = 14.0

     negative rho (up, down):  2.746E-04 0.000E+00

     total cpu time spent up to now is      662.8 secs

     total energy              =   -1089.70445100 Ry
     Harris-Foulkes estimate   =   -1091.28861891 Ry
     estimated scf accuracy    <       5.41827009 Ry

     iteration #123     ecut=    80.00 Ry     beta= 0.40
     Davidson diagonalization with overlap
     ethr =  4.16E-05,  avg # of iterations =  7.9

     negative rho (up, down):  1.094E-03 0.000E+00

     total cpu time spent up to now is      671.5 secs

     total energy              =   -1087.18642841 Ry
     Harris-Foulkes estimate   =   -1089.73624597 Ry
     estimated scf accuracy    <       3.36519764 Ry

     iteration #124     ecut=    80.00 Ry     beta= 0.40
     Davidson diagonalization with overlap
     ethr =  4.16E-05,  avg # of iterations = 10.0

     negative rho (up, down):  5.068E-04 0.000E+00

     total cpu time spent up to now is      682.5 secs

     total energy              =   -1085.15895661 Ry
     Harris-Foulkes estimate   =   -1089.90841500 Ry
     estimated scf accuracy    <      48.98818472 Ry

     iteration #125     ecut=    80.00 Ry     beta= 0.40
     Davidson diagonalization with overlap
     ethr =  4.16E-05,  avg # of iterations =  4.1

     negative rho (up, down):  1.963E-04 0.000E+00

     total cpu time spent up to now is      689.1 secs

     total energy              =   -1087.99365143 Ry
     Harris-Foulkes estimate   =   -1088.04093270 Ry
     estimated scf accuracy    <       0.07299583 Ry

     iteration #126     ecut=    80.00 Ry     beta= 0.40
     Davidson diagonalization with overlap
     ethr =  4.16E-05,  avg # of iterations =  5.0

     negative rho (up, down):  2.630E-04 0.000E+00

     total cpu time spent up to now is      696.3 secs

     total energy              =   -1088.13180678 Ry
     Harris-Foulkes estimate   =   -1088.53589164 Ry
     estimated scf accuracy    <       1.81464575 Ry

     iteration #127     ecut=    80.00 Ry     beta= 0.40
     Davidson diagonalization with overlap
     ethr =  4.16E-05,  avg # of iterations =  2.9

     negative rho (up, down):  2.599E-04 0.000E+00

     total cpu time spent up to now is      701.1 secs

     total energy              =   -1088.08045134 Ry
     Harris-Foulkes estimate   =   -1088.13551740 Ry
     estimated scf accuracy    <       1.29934291 Ry

     iteration #128     ecut=    80.00 Ry     beta= 0.40
     Davidson diagonalization with overlap
     ethr =  4.16E-05,  avg # of iterations =  1.0

     negative rho (up, down):  2.604E-04 0.000E+00

     total cpu time spent up to now is      704.5 secs

     total energy              =   -1088.07597765 Ry
     Harris-Foulkes estimate   =   -1088.08059391 Ry
     estimated scf accuracy    <       1.22841891 Ry

     iteration #129     ecut=    80.00 Ry     beta= 0.40
     Davidson diagonalization with overlap
     ethr =  4.16E-05,  avg # of iterations =  1.0

     negative rho (up, down):  2.288E-04 0.000E+00

     total cpu time spent up to now is      707.9 secs

     total energy              =   -1087.96840632 Ry
     Harris-Foulkes estimate   =   -1088.07601410 Ry
     estimated scf accuracy    <       1.22175061 Ry

     iteration #130     ecut=    80.00 Ry     beta= 0.40
     Davidson diagonalization with overlap
     ethr =  4.16E-05,  avg # of iterations =  2.0

     negative rho (up, down):  2.092E-04 0.000E+00

     total cpu time spent up to now is      712.0 secs

     total energy              =   -1088.03493779 Ry
     Harris-Foulkes estimate   =   -1088.01904555 Ry
     estimated scf accuracy    <       0.03852696 Ry

     iteration #131     ecut=    80.00 Ry     beta= 0.40
     Davidson diagonalization with overlap
     ethr =  4.16E-05,  avg # of iterations =  1.0

     negative rho (up, down):  1.991E-04 0.000E+00

     total cpu time spent up to now is      715.3 secs

     total energy              =   -1088.02625224 Ry
     Harris-Foulkes estimate   =   -1088.03519196 Ry
     estimated scf accuracy    <       0.05930683 Ry

     iteration #132     ecut=    80.00 Ry     beta= 0.40
     Davidson diagonalization with overlap
     ethr =  4.16E-05,  avg # of iterations =  1.0

     negative rho (up, down):  2.422E-04 0.000E+00

     total cpu time spent up to now is      718.6 secs

     total energy              =   -1088.01747708 Ry
     Harris-Foulkes estimate   =   -1088.02634545 Ry
     estimated scf accuracy    <       0.04826765 Ry

     iteration #133     ecut=    80.00 Ry     beta= 0.40
     Davidson diagonalization with overlap
     ethr =  4.16E-05,  avg # of iterations =  1.0

     negative rho (up, down):  6.773E-04 0.000E+00

     total cpu time spent up to now is      722.0 secs

     total energy              =   -1088.97497203 Ry
     Harris-Foulkes estimate   =   -1088.01757645 Ry
     estimated scf accuracy    <       0.03910872 Ry

     iteration #134     ecut=    80.00 Ry     beta= 0.40
     Davidson diagonalization with overlap
     ethr =  4.16E-05,  avg # of iterations =  8.0

     negative rho (up, down):  3.325E-04 0.000E+00

     total cpu time spent up to now is      732.6 secs

     total energy              =   -1083.79435168 Ry
     Harris-Foulkes estimate   =   -1095.32003125 Ry
     estimated scf accuracy    <      55.98859793 Ry

     iteration #135     ecut=    80.00 Ry     beta= 0.40
     Davidson diagonalization with overlap
     ethr =  4.16E-05,  avg # of iterations =  8.0

     negative rho (up, down):  3.419E-04 0.000E+00

     total cpu time spent up to now is      742.3 secs

     total energy              =   -1088.07893481 Ry
     Harris-Foulkes estimate   =   -1088.07437500 Ry
     estimated scf accuracy    <       1.21595883 Ry

     iteration #136     ecut=    80.00 Ry     beta= 0.40
     Davidson diagonalization with overlap
     ethr =  4.16E-05,  avg # of iterations =  1.0

     negative rho (up, down):  3.009E-04 0.000E+00

     total cpu time spent up to now is      745.5 secs

     total energy              =   -1088.05671227 Ry
     Harris-Foulkes estimate   =   -1088.07896620 Ry
     estimated scf accuracy    <       1.22262181 Ry

     iteration #137     ecut=    80.00 Ry     beta= 0.40
     Davidson diagonalization with overlap
     ethr =  4.16E-05,  avg # of iterations =  1.0

     negative rho (up, down):  2.000E-04 0.000E+00

     total cpu time spent up to now is      748.8 secs

     total energy              =   -1087.98960935 Ry
     Harris-Foulkes estimate   =   -1088.05672574 Ry
     estimated scf accuracy    <       1.20176505 Ry

     iteration #138     ecut=    80.00 Ry     beta= 0.40
     Davidson diagonalization with overlap
     ethr =  4.16E-05,  avg # of iterations =  1.0

     negative rho (up, down):  1.874E-04 0.000E+00

     total cpu time spent up to now is      751.9 secs

     total energy              =   -1088.03573134 Ry
     Harris-Foulkes estimate   =   -1088.01539789 Ry
     estimated scf accuracy    <       0.05644012 Ry

     iteration #139     ecut=    80.00 Ry     beta= 0.40
     Davidson diagonalization with overlap
     ethr =  4.16E-05,  avg # of iterations =  1.0

     negative rho (up, down):  2.092E-04 0.000E+00

     total cpu time spent up to now is      755.2 secs

     total energy              =   -1088.02318813 Ry
     Harris-Foulkes estimate   =   -1088.03173032 Ry
     estimated scf accuracy    <       0.05470566 Ry

     iteration #140     ecut=    80.00 Ry     beta= 0.40
     Davidson diagonalization with overlap
     ethr =  4.16E-05,  avg # of iterations =  1.0

     negative rho (up, down):  2.327E-04 0.000E+00

     total cpu time spent up to now is      758.5 secs

     total energy              =   -1088.01360101 Ry
     Harris-Foulkes estimate   =   -1088.02326795 Ry
     estimated scf accuracy    <       0.04397226 Ry

     iteration #141     ecut=    80.00 Ry     beta= 0.40
     Davidson diagonalization with overlap
     ethr =  4.16E-05,  avg # of iterations =  1.0

     negative rho (up, down):  2.268E-04 0.000E+00

     total cpu time spent up to now is      762.0 secs

     total energy              =   -1088.02020832 Ry
     Harris-Foulkes estimate   =   -1088.01275195 Ry
     estimated scf accuracy    <       0.01970951 Ry

     iteration #142     ecut=    80.00 Ry     beta= 0.40
     Davidson diagonalization with overlap
     ethr =  4.16E-05,  avg # of iterations =  1.0

     negative rho (up, down):  2.259E-04 0.000E+00

     total cpu time spent up to now is      765.3 secs

     total energy              =   -1088.01741213 Ry
     Harris-Foulkes estimate   =   -1088.02376845 Ry
     estimated scf accuracy    <       0.04473406 Ry

     iteration #143     ecut=    80.00 Ry     beta= 0.40
     Davidson diagonalization with overlap
     ethr =  4.16E-05,  avg # of iterations =  1.0

     negative rho (up, down):  2.482E-04 0.000E+00

     total cpu time spent up to now is      768.6 secs

     total energy              =   -1088.23190409 Ry
     Harris-Foulkes estimate   =   -1088.01741160 Ry
     estimated scf accuracy    <       0.04153283 Ry

     iteration #144     ecut=    80.00 Ry     beta= 0.40
     Davidson diagonalization with overlap
     ethr =  4.16E-05,  avg # of iterations =  6.0

     negative rho (up, down):  2.724E-04 0.000E+00

     total cpu time spent up to now is      775.5 secs

     total energy              =   -1086.65678744 Ry
     Harris-Foulkes estimate   =   -1088.53488844 Ry
     estimated scf accuracy    <      47.20261062 Ry

     iteration #145     ecut=    80.00 Ry     beta= 0.40
     Davidson diagonalization with overlap
     ethr =  4.16E-05,  avg # of iterations =  3.0

     negative rho (up, down):  2.621E-04 0.000E+00

     total cpu time spent up to now is      780.4 secs

     total energy              =   -1088.18750979 Ry
     Harris-Foulkes estimate   =   -1088.10975054 Ry
     estimated scf accuracy    <       0.15763747 Ry

     iteration #146     ecut=    80.00 Ry     beta= 0.40
     Davidson diagonalization with overlap
     ethr =  4.16E-05,  avg # of iterations =  2.0

     negative rho (up, down):  2.946E-04 0.000E+00

     total cpu time spent up to now is      784.5 secs

     total energy              =   -1087.95941229 Ry
     Harris-Foulkes estimate   =   -1088.18916790 Ry
     estimated scf accuracy    <       0.26793262 Ry

     iteration #147     ecut=    80.00 Ry     beta= 0.40
     Davidson diagonalization with overlap
     ethr =  4.16E-05,  avg # of iterations =  8.0

     negative rho (up, down):  3.424E-04 0.000E+00

     total cpu time spent up to now is      792.8 secs

     total energy              =   -1088.71845901 Ry
     Harris-Foulkes estimate   =   -1088.61295066 Ry
     estimated scf accuracy    <       1.92152568 Ry

     iteration #148     ecut=    80.00 Ry     beta= 0.40
     Davidson diagonalization with overlap
     ethr =  4.16E-05,  avg # of iterations =  1.6

     negative rho (up, down):  3.052E-04 0.000E+00

     total cpu time spent up to now is      796.2 secs

     total energy              =   -1088.39447272 Ry
     Harris-Foulkes estimate   =   -1088.71866670 Ry
     estimated scf accuracy    <       2.05418919 Ry

     iteration #149     ecut=    80.00 Ry     beta= 0.40
     Davidson diagonalization with overlap
     ethr =  4.16E-05,  avg # of iterations =  2.0

     negative rho (up, down):  2.956E-04 0.000E+00

     total cpu time spent up to now is      800.4 secs

     total energy              =   -1088.13902973 Ry
     Harris-Foulkes estimate   =   -1088.39674158 Ry
     estimated scf accuracy    <       1.64128195 Ry

     iteration #150     ecut=    80.00 Ry     beta= 0.40
     Davidson diagonalization with overlap
     ethr =  4.16E-05,  avg # of iterations =  3.9

     negative rho (up, down):  2.924E-04 0.000E+00

     total cpu time spent up to now is      805.4 secs

     total energy              =   -1088.10640665 Ry
     Harris-Foulkes estimate   =   -1088.14116304 Ry
     estimated scf accuracy    <       1.30666755 Ry

     iteration #151     ecut=    80.00 Ry     beta= 0.40
     Davidson diagonalization with overlap
     ethr =  4.16E-05,  avg # of iterations =  1.0

     negative rho (up, down):  2.964E-04 0.000E+00

     total cpu time spent up to now is      808.9 secs

     total energy              =   -1088.15164870 Ry
     Harris-Foulkes estimate   =   -1088.10646491 Ry
     estimated scf accuracy    <       1.26295564 Ry

     iteration #152     ecut=    80.00 Ry     beta= 0.40
     Davidson diagonalization with overlap
     ethr =  4.16E-05,  avg # of iterations =  1.0

     negative rho (up, down):  2.918E-04 0.000E+00

     total cpu time spent up to now is      812.3 secs

     total energy              =   -1087.99091477 Ry
     Harris-Foulkes estimate   =   -1088.15171073 Ry
     estimated scf accuracy    <       1.31918151 Ry

     iteration #153     ecut=    80.00 Ry     beta= 0.40
     Davidson diagonalization with overlap
     ethr =  4.16E-05,  avg # of iterations =  2.1

     negative rho (up, down):  2.515E-04 0.000E+00

     total cpu time spent up to now is      816.3 secs

     total energy              =   -1088.28957403 Ry
     Harris-Foulkes estimate   =   -1088.01482887 Ry
     estimated scf accuracy    <       0.06110237 Ry

     iteration #154     ecut=    80.00 Ry     beta= 0.40
     Davidson diagonalization with overlap
     ethr =  4.16E-05,  avg # of iterations =  7.6

     negative rho (up, down):  2.834E-04 0.000E+00

     total cpu time spent up to now is      823.8 secs

     total energy              =   -1083.64719459 Ry
     Harris-Foulkes estimate   =   -1088.82029856 Ry
     estimated scf accuracy    <      47.53810180 Ry

     iteration #155     ecut=    80.00 Ry     beta= 0.40
     Davidson diagonalization with overlap
     ethr =  4.16E-05,  avg # of iterations =  4.0

     negative rho (up, down):  2.841E-04 0.000E+00

     total cpu time spent up to now is      830.6 secs

     total energy              =   -1088.10662866 Ry
     Harris-Foulkes estimate   =   -1088.11620127 Ry
     estimated scf accuracy    <       1.27097650 Ry

     iteration #156     ecut=    80.00 Ry     beta= 0.40
     Davidson diagonalization with overlap
     ethr =  4.16E-05,  avg # of iterations =  1.0

     negative rho (up, down):  2.777E-04 0.000E+00

     total cpu time spent up to now is      834.0 secs

     total energy              =   -1088.01958020 Ry
     Harris-Foulkes estimate   =   -1088.10669961 Ry
     estimated scf accuracy    <       1.25877604 Ry

     iteration #157     ecut=    80.00 Ry     beta= 0.40
     Davidson diagonalization with overlap
     ethr =  4.16E-05,  avg # of iterations =  1.1

     negative rho (up, down):  2.725E-04 0.000E+00

     total cpu time spent up to now is      837.5 secs

     total energy              =   -1088.03046799 Ry
     Harris-Foulkes estimate   =   -1088.01713932 Ry
     estimated scf accuracy    <       0.64742385 Ry

     iteration #158     ecut=    80.00 Ry     beta= 0.40
     Davidson diagonalization with overlap
     ethr =  4.16E-05,  avg # of iterations =  1.0

     negative rho (up, down):  3.032E-04 0.000E+00

     total cpu time spent up to now is      840.9 secs

     total energy              =   -1088.18881828 Ry
     Harris-Foulkes estimate   =   -1088.03653736 Ry
     estimated scf accuracy    <       1.64249668 Ry

     iteration #159     ecut=    80.00 Ry     beta= 0.40
     Davidson diagonalization with overlap
     ethr =  4.16E-05,  avg # of iterations =  2.0

     negative rho (up, down):  2.855E-04 0.000E+00

     total cpu time spent up to now is      844.9 secs

     total energy              =   -1088.03973127 Ry
     Harris-Foulkes estimate   =   -1088.16742586 Ry
     estimated scf accuracy    <       1.33974672 Ry

     iteration #160     ecut=    80.00 Ry     beta= 0.40
     Davidson diagonalization with overlap
     ethr =  4.16E-05,  avg # of iterations =  2.0

     negative rho (up, down):  2.911E-04 0.000E+00

     total cpu time spent up to now is      848.9 secs

     total energy              =   -1088.10303176 Ry
     Harris-Foulkes estimate   =   -1088.03973145 Ry
     estimated scf accuracy    <       1.49392192 Ry

     iteration #161     ecut=    80.00 Ry     beta= 0.40
     Davidson diagonalization with overlap
     ethr =  4.16E-05,  avg # of iterations =  1.0

     negative rho (up, down):  2.802E-04 0.000E+00

     total cpu time spent up to now is      852.2 secs

     total energy              =   -1087.97212170 Ry
     Harris-Foulkes estimate   =   -1088.09669729 Ry
     estimated scf accuracy    <       1.24584238 Ry

     iteration #162     ecut=    80.00 Ry     beta= 0.40
     Davidson diagonalization with overlap
     ethr =  4.16E-05,  avg # of iterations =  2.0

     negative rho (up, down):  2.715E-04 0.000E+00

     total cpu time spent up to now is      856.2 secs

     total energy              =   -1088.02253405 Ry
     Harris-Foulkes estimate   =   -1088.01842415 Ry
     estimated scf accuracy    <       0.03788251 Ry

     iteration #163     ecut=    80.00 Ry     beta= 0.40
     Davidson diagonalization with overlap
     ethr =  4.16E-05,  avg # of iterations =  1.0

     negative rho (up, down):  1.300E-04 0.000E+00

     total cpu time spent up to now is      859.6 secs

     total energy              =   -1088.31932803 Ry
     Harris-Foulkes estimate   =   -1088.02254503 Ry
     estimated scf accuracy    <       0.04261774 Ry

     iteration #164     ecut=    80.00 Ry     beta= 0.40
     Davidson diagonalization with overlap
     ethr =  4.16E-05,  avg # of iterations =  6.7

     negative rho (up, down):  2.626E-04 0.000E+00

     total cpu time spent up to now is      866.8 secs

     total energy              =   -1084.65206876 Ry
     Harris-Foulkes estimate   =   -1089.68281780 Ry
     estimated scf accuracy    <      48.68058169 Ry

     iteration #165     ecut=    80.00 Ry     beta= 0.40
     Davidson diagonalization with overlap
     ethr =  4.16E-05,  avg # of iterations =  4.2

     negative rho (up, down):  2.628E-04 0.000E+00

     total cpu time spent up to now is      873.0 secs

     total energy              =   -1088.02145929 Ry
     Harris-Foulkes estimate   =   -1088.02244496 Ry
     estimated scf accuracy    <       0.04334633 Ry

     iteration #166     ecut=    80.00 Ry     beta= 0.40
     Davidson diagonalization with overlap
     ethr =  4.16E-05,  avg # of iterations =  1.0

     negative rho (up, down):  2.745E-04 0.000E+00

     total cpu time spent up to now is      876.4 secs

     total energy              =   -1088.02102326 Ry
     Harris-Foulkes estimate   =   -1088.02152894 Ry
     estimated scf accuracy    <       0.04212178 Ry

     iteration #167     ecut=    80.00 Ry     beta= 0.40
     Davidson diagonalization with overlap
     ethr =  4.16E-05,  avg # of iterations =  1.0

     negative rho (up, down):  2.796E-04 0.000E+00

     total cpu time spent up to now is      879.8 secs

     total energy              =   -1088.01734120 Ry
     Harris-Foulkes estimate   =   -1088.02105848 Ry
     estimated scf accuracy    <       0.04143995 Ry

     iteration #168     ecut=    80.00 Ry     beta= 0.40
     Davidson diagonalization with overlap
     ethr =  4.16E-05,  avg # of iterations =  1.0

     negative rho (up, down):  2.582E-04 0.000E+00

     total cpu time spent up to now is      883.1 secs

     total energy              =   -1088.04318485 Ry
     Harris-Foulkes estimate   =   -1088.01736943 Ry
     estimated scf accuracy    <       0.03903545 Ry

     iteration #169     ecut=    80.00 Ry     beta= 0.40
     Davidson diagonalization with overlap
     ethr =  4.16E-05,  avg # of iterations =  2.0

     negative rho (up, down):  2.725E-04 0.000E+00

     total cpu time spent up to now is      887.0 secs

     total energy              =   -1088.02058631 Ry
     Harris-Foulkes estimate   =   -1088.04301412 Ry
     estimated scf accuracy    <       0.06983712 Ry

     iteration #170     ecut=    80.00 Ry     beta= 0.40
     Davidson diagonalization with overlap
     ethr =  4.16E-05,  avg # of iterations =  2.0

     negative rho (up, down):  1.176E-02 0.000E+00

     total cpu time spent up to now is      890.8 secs

     total energy              =   -1089.17713973 Ry
     Harris-Foulkes estimate   =   -1088.02103398 Ry
     estimated scf accuracy    <       0.04109296 Ry

     iteration #171     ecut=    80.00 Ry     beta= 0.40
     Davidson diagonalization with overlap
     ethr =  4.16E-05,  avg # of iterations =  8.7

     negative rho (up, down):  8.138E-03 0.000E+00

     total cpu time spent up to now is      901.1 secs

     total energy              =   -1093.37126035 Ry
     Harris-Foulkes estimate   =   -1096.70991021 Ry
     estimated scf accuracy    <      57.75405073 Ry

     iteration #172     ecut=    80.00 Ry     beta= 0.40
     Davidson diagonalization with overlap
     ethr =  4.16E-05,  avg # of iterations =  5.0

     negative rho (up, down):  9.711E-02 0.000E+00

     total cpu time spent up to now is      907.6 secs

     total energy              =   -1107.24581132 Ry
     Harris-Foulkes estimate   =   -1093.37887705 Ry
     estimated scf accuracy    <      53.54155052 Ry

     iteration #173     ecut=    80.00 Ry     beta= 0.40
     Davidson diagonalization with overlap
     ethr =  4.16E-05,  avg # of iterations = 13.0

     negative rho (up, down):  1.108E+00 0.000E+00

     total cpu time spent up to now is      920.0 secs

     total energy              =   -1138.28988146 Ry
     Harris-Foulkes estimate   =   -1108.37859771 Ry
     estimated scf accuracy    <      94.73581194 Ry

     iteration #174     ecut=    80.00 Ry     beta= 0.40
     Davidson diagonalization with overlap
     ethr =  4.16E-05,  avg # of iterations =  7.2

     negative rho (up, down):  3.139E-01 0.000E+00

     total cpu time spent up to now is      928.9 secs

     total energy              =   -1118.33136394 Ry
     Harris-Foulkes estimate   =   -1139.13301200 Ry
     estimated scf accuracy    <     147.17456635 Ry

     iteration #175     ecut=    80.00 Ry     beta= 0.40
     Davidson diagonalization with overlap
     ethr =  4.16E-05,  avg # of iterations =  7.8

     negative rho (up, down):  2.755E+00 0.000E+00

     total cpu time spent up to now is      936.4 secs

     total energy              =   -1184.91709927 Ry
     Harris-Foulkes estimate   =   -1118.88936238 Ry
     estimated scf accuracy    <     109.05828099 Ry

     iteration #176     ecut=    80.00 Ry     beta= 0.40
     Davidson diagonalization with overlap
     c_bands:  1 eigenvalues not converged
     c_bands:  1 eigenvalues not converged
     c_bands:  1 eigenvalues not converged
     c_bands:  1 eigenvalues not converged
     c_bands:  1 eigenvalues not converged
     c_bands:  1 eigenvalues not converged
     c_bands:  1 eigenvalues not converged
     c_bands:  1 eigenvalues not converged
     c_bands:  1 eigenvalues not converged
     c_bands:  1 eigenvalues not converged
     c_bands:  1 eigenvalues not converged
     c_bands:  1 eigenvalues not converged
     c_bands:  1 eigenvalues not converged
     c_bands:  1 eigenvalues not converged
     c_bands:  1 eigenvalues not converged
[...]
     Davidson diagonalization with overlap
     ethr =  4.16E-05,  avg # of iterations =  1.0

     negative rho (up, down):  2.171E-04 0.000E+00

     total cpu time spent up to now is     1689.9 secs

     total energy              =   -1087.99975165 Ry
     Harris-Foulkes estimate   =   -1088.02053642 Ry
     estimated scf accuracy    <       0.03610346 Ry

     iteration #362     ecut=    80.00 Ry     beta= 0.40
     Davidson diagonalization with overlap
     ethr =  4.16E-05,  avg # of iterations =  2.0

     negative rho (up, down):  2.098E-04 0.000E+00

     total cpu time spent up to now is     1694.0 secs

     total energy              =   -1087.97074085 Ry
     Harris-Foulkes estimate   =   -1088.10403271 Ry
     estimated scf accuracy    <       1.27020514 Ry

     iteration #363     ecut=    80.00 Ry     beta= 0.40
     Davidson diagonalization with overlap
     ethr =  4.16E-05,  avg # of iterations =  2.0

     negative rho (up, down):  2.104E-04 0.000E+00

     total cpu time spent up to now is     1697.9 secs

     total energy              =   -1088.01589163 Ry
     Harris-Foulkes estimate   =   -1088.01773758 Ry
     estimated scf accuracy    <       0.03275186 Ry

     iteration #364     ecut=    80.00 Ry     beta= 0.40
     Davidson diagonalization with overlap
     ethr =  4.16E-05,  avg # of iterations =  1.0

     negative rho (up, down):  2.103E-04 0.000E+00

     total cpu time spent up to now is     1701.3 secs

     total energy              =   -1088.01733901 Ry
     Harris-Foulkes estimate   =   -1088.01583622 Ry
     estimated scf accuracy    <       0.03739459 Ry

     iteration #365     ecut=    80.00 Ry     beta= 0.40
     Davidson diagonalization with overlap
     ethr =  4.16E-05,  avg # of iterations =  1.0

     negative rho (up, down):  2.102E-04 0.000E+00

     total cpu time spent up to now is     1704.7 secs

     total energy              =   -1088.01748094 Ry
     Harris-Foulkes estimate   =   -1088.01726214 Ry
     estimated scf accuracy    <       0.03273721 Ry

     iteration #366     ecut=    80.00 Ry     beta= 0.40
     Davidson diagonalization with overlap
     ethr =  4.16E-05,  avg # of iterations =  1.0

     negative rho (up, down):  2.102E-04 0.000E+00

     total cpu time spent up to now is     1708.1 secs

     total energy              =   -1088.01647996 Ry
     Harris-Foulkes estimate   =   -1088.01748284 Ry
     estimated scf accuracy    <       0.03271578 Ry

     iteration #367     ecut=    80.00 Ry     beta= 0.40
     Davidson diagonalization with overlap
     ethr =  4.16E-05,  avg # of iterations =  1.0

     negative rho (up, down):  2.102E-04 0.000E+00

     total cpu time spent up to now is     1711.5 secs

     total energy              =   -1088.01599649 Ry
     Harris-Foulkes estimate   =   -1088.01646460 Ry
     estimated scf accuracy    <       0.03429064 Ry

     iteration #368     ecut=    80.00 Ry     beta= 0.40
     Davidson diagonalization with overlap
     ethr =  4.16E-05,  avg # of iterations =  1.0

     negative rho (up, down):  2.093E-04 0.000E+00

     total cpu time spent up to now is     1714.9 secs

     total energy              =   -1088.01482070 Ry
     Harris-Foulkes estimate   =   -1088.01598860 Ry
     estimated scf accuracy    <       0.03650250 Ry

     iteration #369     ecut=    80.00 Ry     beta= 0.40
     Davidson diagonalization with overlap
     ethr =  4.16E-05,  avg # of iterations =  1.0

     negative rho (up, down):  2.090E-04 0.000E+00

     total cpu time spent up to now is     1718.0 secs

     total energy              =   -1088.02007400 Ry
     Harris-Foulkes estimate   =   -1088.01473175 Ry
     estimated scf accuracy    <       0.04831763 Ry

     iteration #370     ecut=    80.00 Ry     beta= 0.40
     Davidson diagonalization with overlap
     ethr =  4.16E-05,  avg # of iterations =  1.0

     negative rho (up, down):  2.087E-04 0.000E+00

     total cpu time spent up to now is     1721.3 secs

     total energy              =   -1088.03513611 Ry
     Harris-Foulkes estimate   =   -1088.01918272 Ry
     estimated scf accuracy    <       0.03421367 Ry

     iteration #371     ecut=    80.00 Ry     beta= 0.40
     Davidson diagonalization with overlap
     ethr =  4.16E-05,  avg # of iterations =  1.0

     negative rho (up, down):  2.100E-04 0.000E+00

     total cpu time spent up to now is     1724.7 secs

     total energy              =   -1088.05250509 Ry
     Harris-Foulkes estimate   =   -1088.03543473 Ry
     estimated scf accuracy    <       0.05554454 Ry

     iteration #372     ecut=    80.00 Ry     beta= 0.40
     Davidson diagonalization with overlap
     ethr =  4.16E-05,  avg # of iterations =  1.0

     negative rho (up, down):  2.058E-04 0.000E+00

     total cpu time spent up to now is     1727.9 secs

     total energy              =   -1088.03458984 Ry
     Harris-Foulkes estimate   =   -1088.05276595 Ry
     estimated scf accuracy    <       0.07845841 Ry

     iteration #373     ecut=    80.00 Ry     beta= 0.40
     Davidson diagonalization with overlap
     ethr =  4.16E-05,  avg # of iterations =  1.0

     negative rho (up, down):  2.103E-04 0.000E+00

     total cpu time spent up to now is     1731.4 secs

     total energy              =   -1088.01817705 Ry
     Harris-Foulkes estimate   =   -1088.03483190 Ry
     estimated scf accuracy    <       0.05538476 Ry

     iteration #374     ecut=    80.00 Ry     beta= 0.40
     Davidson diagonalization with overlap
     ethr =  4.16E-05,  avg # of iterations =  2.0

     negative rho (up, down):  2.106E-04 0.000E+00

     total cpu time spent up to now is     1735.2 secs

     total energy              =   -1088.01633078 Ry
     Harris-Foulkes estimate   =   -1088.01852635 Ry
     estimated scf accuracy    <       0.03393808 Ry

     iteration #375     ecut=    80.00 Ry     beta= 0.40
     Davidson diagonalization with overlap
     ethr =  4.16E-05,  avg # of iterations =  1.0

     negative rho (up, down):  2.071E-04 0.000E+00

     total cpu time spent up to now is     1738.5 secs

     total energy              =   -1088.02581255 Ry
     Harris-Foulkes estimate   =   -1088.01632381 Ry
     estimated scf accuracy    <       0.03518601 Ry

     iteration #376     ecut=    80.00 Ry     beta= 0.40
     Davidson diagonalization with overlap
     ethr =  4.16E-05,  avg # of iterations =  1.0

     negative rho (up, down):  2.095E-04 0.000E+00

     total cpu time spent up to now is     1741.9 secs

     total energy              =   -1088.02210969 Ry
     Harris-Foulkes estimate   =   -1088.02539765 Ry
     estimated scf accuracy    <       0.04247611 Ry

     iteration #377     ecut=    80.00 Ry     beta= 0.40
     Davidson diagonalization with overlap
     ethr =  4.16E-05,  avg # of iterations =  1.0

     negative rho (up, down):  2.082E-04 0.000E+00

     total cpu time spent up to now is     1745.1 secs

     total energy              =   -1088.01933958 Ry
     Harris-Foulkes estimate   =   -1088.02212056 Ry
     estimated scf accuracy    <       0.03841385 Ry

     iteration #378     ecut=    80.00 Ry     beta= 0.40
     Davidson diagonalization with overlap
     ethr =  4.16E-05,  avg # of iterations =  1.0

     negative rho (up, down):  2.035E-04 0.000E+00

     total cpu time spent up to now is     1748.4 secs

     total energy              =   -1087.99266622 Ry
     Harris-Foulkes estimate   =   -1088.01935598 Ry
     estimated scf accuracy    <       0.03469623 Ry

     iteration #379     ecut=    80.00 Ry     beta= 0.40
     Davidson diagonalization with overlap
     ethr =  4.16E-05,  avg # of iterations =  3.0

     negative rho (up, down):  2.083E-04 0.000E+00

     total cpu time spent up to now is     1753.4 secs

     total energy              =   -1087.96821578 Ry
     Harris-Foulkes estimate   =   -1088.19401548 Ry
     estimated scf accuracy    <       1.38994943 Ry

     iteration #380     ecut=    80.00 Ry     beta= 0.40
     Davidson diagonalization with overlap
     ethr =  4.16E-05,  avg # of iterations =  2.0

     negative rho (up, down):  2.085E-04 0.000E+00

     total cpu time spent up to now is     1757.7 secs

     total energy              =   -1088.01854601 Ry
     Harris-Foulkes estimate   =   -1088.01789367 Ry
     estimated scf accuracy    <       0.03280092 Ry

     iteration #381     ecut=    80.00 Ry     beta= 0.40
     Davidson diagonalization with overlap
     ethr =  4.16E-05,  avg # of iterations =  1.0

     negative rho (up, down):  2.080E-04 0.000E+00

     total cpu time spent up to now is     1761.0 secs

     total energy              =   -1088.02236869 Ry
     Harris-Foulkes estimate   =   -1088.01857540 Ry
     estimated scf accuracy    <       0.03331117 Ry

     iteration #382     ecut=    80.00 Ry     beta= 0.40
     Davidson diagonalization with overlap
     ethr =  4.16E-05,  avg # of iterations =  1.0

     negative rho (up, down):  2.075E-04 0.000E+00

     total cpu time spent up to now is     1764.4 secs

     total energy              =   -1088.02546759 Ry
     Harris-Foulkes estimate   =   -1088.02240641 Ry
     estimated scf accuracy    <       0.03833185 Ry

     iteration #383     ecut=    80.00 Ry     beta= 0.40
     Davidson diagonalization with overlap
     ethr =  4.16E-05,  avg # of iterations =  1.0

     negative rho (up, down):  2.077E-04 0.000E+00

     total cpu time spent up to now is     1767.8 secs

     total energy              =   -1088.02926820 Ry
     Harris-Foulkes estimate   =   -1088.02549576 Ry
     estimated scf accuracy    <       0.04231399 Ry

     iteration #384     ecut=    80.00 Ry     beta= 0.40
     Davidson diagonalization with overlap
     ethr =  4.16E-05,  avg # of iterations =  1.0

     negative rho (up, down):  2.182E-04 0.000E+00

     total cpu time spent up to now is     1771.2 secs

     total energy              =   -1088.00876723 Ry
     Harris-Foulkes estimate   =   -1088.02930462 Ry
     estimated scf accuracy    <       0.04734689 Ry

     iteration #385     ecut=    80.00 Ry     beta= 0.40
     Davidson diagonalization with overlap
     ethr =  4.16E-05,  avg # of iterations =  2.0

     negative rho (up, down):  2.188E-04 0.000E+00

     total cpu time spent up to now is     1775.2 secs

     total energy              =   -1088.02898081 Ry
     Harris-Foulkes estimate   =   -1088.02351447 Ry
     estimated scf accuracy    <       1.47860395 Ry

     iteration #386     ecut=    80.00 Ry     beta= 0.40
     Davidson diagonalization with overlap
     ethr =  4.16E-05,  avg # of iterations =  1.0

     negative rho (up, down):  2.090E-04 0.000E+00

     total cpu time spent up to now is     1778.6 secs

     total energy              =   -1087.91398755 Ry
     Harris-Foulkes estimate   =   -1088.02930745 Ry
     estimated scf accuracy    <       1.77703212 Ry

     iteration #387     ecut=    80.00 Ry     beta= 0.40
     Davidson diagonalization with overlap
     ethr =  4.16E-05,  avg # of iterations =  2.0

     negative rho (up, down):  2.084E-04 0.000E+00

     total cpu time spent up to now is     1782.5 secs

     total energy              =   -1088.02705088 Ry
     Harris-Foulkes estimate   =   -1088.02380665 Ry
     estimated scf accuracy    <       0.04024799 Ry

     iteration #388     ecut=    80.00 Ry     beta= 0.40
     Davidson diagonalization with overlap
     ethr =  4.16E-05,  avg # of iterations =  1.0

     negative rho (up, down):  2.087E-04 0.000E+00

     total cpu time spent up to now is     1785.8 secs

     total energy              =   -1088.02740626 Ry
     Harris-Foulkes estimate   =   -1088.02707461 Ry
     estimated scf accuracy    <       0.04446886 Ry

     iteration #389     ecut=    80.00 Ry     beta= 0.40
     Davidson diagonalization with overlap
     ethr =  4.16E-05,  avg # of iterations =  1.0

     negative rho (up, down):  2.123E-04 0.000E+00

     total cpu time spent up to now is     1789.2 secs

     total energy              =   -1088.01899960 Ry
     Harris-Foulkes estimate   =   -1088.02741420 Ry
     estimated scf accuracy    <       0.04494897 Ry

     iteration #390     ecut=    80.00 Ry     beta= 0.40
     Davidson diagonalization with overlap
     ethr =  4.16E-05,  avg # of iterations =  1.0

     negative rho (up, down):  2.119E-04 0.000E+00

     total cpu time spent up to now is     1792.6 secs

     total energy              =   -1088.01973071 Ry
     Harris-Foulkes estimate   =   -1088.01906957 Ry
     estimated scf accuracy    <       0.03427410 Ry

     iteration #391     ecut=    80.00 Ry     beta= 0.40
     Davidson diagonalization with overlap
     ethr =  4.16E-05,  avg # of iterations =  1.0

     negative rho (up, down):  2.118E-04 0.000E+00

     total cpu time spent up to now is     1796.0 secs

     total energy              =   -1088.01965786 Ry
     Harris-Foulkes estimate   =   -1088.01973338 Ry
     estimated scf accuracy    <       0.03505794 Ry

     iteration #392     ecut=    80.00 Ry     beta= 0.40
     Davidson diagonalization with overlap
     ethr =  4.16E-05,  avg # of iterations =  1.0

     negative rho (up, down):  2.111E-04 0.000E+00

     total cpu time spent up to now is     1799.4 secs

     total energy              =   -1088.02290628 Ry
     Harris-Foulkes estimate   =   -1088.01965816 Ry
     estimated scf accuracy    <       0.03495220 Ry

     iteration #393     ecut=    80.00 Ry     beta= 0.40
     Davidson diagonalization with overlap
     ethr =  4.16E-05,  avg # of iterations =  1.0

     negative rho (up, down):  2.115E-04 0.000E+00

     total cpu time spent up to now is     1802.9 secs

     total energy              =   -1088.02039104 Ry
     Harris-Foulkes estimate   =   -1088.02291983 Ry
     estimated scf accuracy    <       0.03920918 Ry

     iteration #394     ecut=    80.00 Ry     beta= 0.40
     Davidson diagonalization with overlap
     ethr =  4.16E-05,  avg # of iterations =  1.0

     negative rho (up, down):  2.109E-04 0.000E+00

     total cpu time spent up to now is     1806.3 secs

     total energy              =   -1088.01856701 Ry
     Harris-Foulkes estimate   =   -1088.02039902 Ry
     estimated scf accuracy    <       0.03596418 Ry

     iteration #395     ecut=    80.00 Ry     beta= 0.40
     Davidson diagonalization with overlap
     ethr =  4.16E-05,  avg # of iterations =  1.0

     negative rho (up, down):  2.286E-04 0.000E+00

     total cpu time spent up to now is     1809.7 secs

     total energy              =   -1087.98930226 Ry
     Harris-Foulkes estimate   =   -1088.01857292 Ry
     estimated scf accuracy    <       0.03364575 Ry

     iteration #396     ecut=    80.00 Ry     beta= 0.40
     Davidson diagonalization with overlap
     ethr =  4.16E-05,  avg # of iterations =  3.0

     negative rho (up, down):  2.129E-04 0.000E+00

     total cpu time spent up to now is     1814.5 secs

     total energy              =   -1087.98884197 Ry
     Harris-Foulkes estimate   =   -1088.28033013 Ry
     estimated scf accuracy    <       1.50416696 Ry

     iteration #397     ecut=    80.00 Ry     beta= 0.40
     Davidson diagonalization with overlap
     ethr =  4.16E-05,  avg # of iterations =  2.0

     negative rho (up, down):  2.119E-04 0.000E+00

     total cpu time spent up to now is     1819.1 secs

     total energy              =   -1088.01783279 Ry
     Harris-Foulkes estimate   =   -1088.01376040 Ry
     estimated scf accuracy    <       0.05726654 Ry

     iteration #398     ecut=    80.00 Ry     beta= 0.40
     Davidson diagonalization with overlap
     ethr =  4.16E-05,  avg # of iterations =  1.0

     negative rho (up, down):  2.098E-04 0.000E+00

     total cpu time spent up to now is     1822.6 secs

     total energy              =   -1088.01746135 Ry
     Harris-Foulkes estimate   =   -1088.01716434 Ry
     estimated scf accuracy    <       0.03239921 Ry

     iteration #399     ecut=    80.00 Ry     beta= 0.40
     Davidson diagonalization with overlap
     ethr =  4.16E-05,  avg # of iterations =  1.0

     negative rho (up, down):  2.097E-04 0.000E+00

     total cpu time spent up to now is     1826.0 secs

     total energy              =   -1088.01593486 Ry
     Harris-Foulkes estimate   =   -1088.01748857 Ry
     estimated scf accuracy    <       0.03240769 Ry

     iteration #400     ecut=    80.00 Ry     beta= 0.40
     Davidson diagonalization with overlap
     ethr =  4.16E-05,  avg # of iterations =  1.0

     negative rho (up, down):  2.307E-04 0.000E+00

     total cpu time spent up to now is     1829.3 secs

     total energy              =   -1088.01221504 Ry
     Harris-Foulkes estimate   =   -1088.01589913 Ry
     estimated scf accuracy    <       0.03664010 Ry

     End of self-consistent calculation

     convergence NOT achieved after 400 iterations: stopping

     init_run     :      1.79s CPU      3.68s WALL (       1 calls)
     electrons    :    946.68s CPU   1822.36s WALL (       1 calls)

     Called by init_run:
     wfcinit      :      1.33s CPU      2.58s WALL (       1 calls)
     potinit      :      0.15s CPU      0.36s WALL (       1 calls)
     hinit0       :      0.27s CPU      0.67s WALL (       1 calls)

     Called by electrons:
     c_bands      :    782.26s CPU   1476.82s WALL (     400 calls)
     sum_band     :    128.33s CPU    243.54s WALL (     400 calls)
     v_of_rho     :      3.92s CPU      8.11s WALL (     401 calls)
     newd         :      8.79s CPU     14.98s WALL (     401 calls)
     PAW_pot      :     21.99s CPU     75.41s WALL (     401 calls)
     mix_rho      :      1.16s CPU      2.46s WALL (     400 calls)

     Called by c_bands:
     init_us_2    :     20.79s CPU     25.95s WALL (   88110 calls)
     cegterg      :    740.02s CPU   1400.37s WALL (   44000 calls)

     Called by sum_band:
     sum_band:bec :      0.59s CPU      0.77s WALL (   44000 calls)
     addusdens    :      7.57s CPU      9.87s WALL (     400 calls)

     Called by *egterg:
     h_psi        :    568.05s CPU   1092.46s WALL (  152281 calls)
     s_psi        :     28.07s CPU     35.07s WALL (  152281 calls)
     g_psi        :      1.42s CPU      1.75s WALL (  108171 calls)
     cdiaghg      :     24.66s CPU     37.28s WALL (  152171 calls)

     Called by h_psi:
     h_psi:pot    :    565.64s CPU   1089.43s WALL (  152281 calls)
     h_psi:calbec :     54.71s CPU    125.76s WALL (  152281 calls)
     vloc_psi     :    480.39s CPU    925.06s WALL (  152281 calls)
     add_vuspsi   :     30.00s CPU     37.97s WALL (  152281 calls)

     General routines
     calbec       :     72.86s CPU    163.82s WALL (  196281 calls)
     fft          :      2.13s CPU      8.39s WALL (    4413 calls)
     ffts         :      0.13s CPU      0.24s WALL (     400 calls)
     fftw         :    525.53s CPU   1043.71s WALL ( 2600050 calls)
     davcio       :      0.00s CPU      0.01s WALL (     128 calls)

     Parallel routines
     fft_scatt_xy :     42.39s CPU     53.57s WALL ( 2604863 calls)
     fft_scatt_yz :    255.69s CPU    709.65s WALL ( 2604863 calls)

     PWSCF        : 15m50.33s CPU    30m29.34s WALL


   This run was terminated on:   8:16:54  24Oct2018            

=------------------------------------------------------------------------------=
   JOB DONE.
=------------------------------------------------------------------------------=
-------------------------------------------------------
Primary job  terminated normally, but 1 process returned
a non-zero exit code.. Per user-direction, the job has been aborted.
-------------------------------------------------------
--------------------------------------------------------------------------
mpirun.openmpi detected that one or more processes exited with non-zero status, thus causing
the job to be terminated. The first process to do so was:

  Process name: [[24402,1],7]
  Exit code:    2
--------------------------------------------------------------------------
