
     Program PWSCF v.6.3MaX starts on 23Oct2018 at 13:19:32 

     This program is part of the open-source Quantum ESPRESSO suite
     for quantum simulation of materials; please cite
         "P. Giannozzi et al., J. Phys.:Condens. Matter 21 395502 (2009);
         "P. Giannozzi et al., J. Phys.:Condens. Matter 29 465901 (2017);
          URL http://www.quantum-espresso.org", 
     in publications or presentations arising from this work. More details at
     http://www.quantum-espresso.org/quote

     Parallel version (MPI), running on     8 processors

     MPI processes distributed on     1 nodes
     R & G space division:  proc/nbgrp/npool/nimage =       8
     Waiting for input...
     Reading input from standard input
Warning: card &CELL ignored
Warning: card                CELL_DYNAMICS = 'BFGS' , ignored
Warning: card / ignored

     Current dimensions of program PWSCF are:
     Max number of different atomic species (ntypx) = 10
     Max number of k-points (npk) =  40000
     Max angular momentum in pseudopotentials (lmaxx) =  3
               file N.pbe-n-kjpaw_psl.1.0.0.UPF: wavefunction(s)  2S renormalized
               file Na.pbe-spnl-kjpaw_psl.1.0.0.UPF: wavefunction(s)  2P renormalized

     Subspace diagonalization in iterative solution of the eigenvalue problem:
     a serial algorithm will be used


     Parallelization info
     --------------------
     sticks:   dense  smooth     PW     G-vecs:    dense   smooth      PW
     Min         223     223     64                 6289     6289     977
     Max         224     224     65                 6294     6294     979
     Sum        1789    1789    517                50333    50333    7823



     bravais-lattice index     =            2
     lattice parameter (alat)  =      14.6200  a.u.
     unit-cell volume          =     781.2358 (a.u.)^3
     number of atoms/cell      =            3
     number of atomic types    =            3
     number of electrons       =         9.00
     number of Kohn-Sham states=            9
     kinetic-energy cutoff     =      61.0000  Ry
     charge density cutoff     =     244.0000  Ry
     convergence threshold     =      1.0E-09
     mixing beta               =       0.4000
     number of iterations used =            8  plain     mixing
     Exchange-correlation      = SLA PW PBX PBC ( 1  4  3  4 0 0)

     celldm(1)=  14.620000  celldm(2)=   0.000000  celldm(3)=   0.000000
     celldm(4)=   0.000000  celldm(5)=   0.000000  celldm(6)=   0.000000

     crystal axes: (cart. coord. in units of alat)
               a(1) = (  -0.500000   0.000000   0.500000 )  
               a(2) = (   0.000000   0.500000   0.500000 )  
               a(3) = (  -0.500000   0.500000   0.000000 )  

     reciprocal axes: (cart. coord. in units 2 pi/alat)
               b(1) = ( -1.000000 -1.000000  1.000000 )  
               b(2) = (  1.000000  1.000000  1.000000 )  
               b(3) = ( -1.000000  1.000000 -1.000000 )  


     PseudoPot. # 1 for N  read from file:
     ./../ps/N.pbe-n-kjpaw_psl.1.0.0.UPF
     MD5 check sum: 200139db3989ad6e773ddd42f12fc3a8
     Pseudo is Projector augmented-wave + core cor, Zval =  5.0
     Generated using "atomic" code by A. Dal Corso v.6.3
     Shape of augmentation charge: PSQ
     Using radial grid of 1085 points,  4 beta functions with: 
                l(1) =   0
                l(2) =   0
                l(3) =   1
                l(4) =   1
     Q(r) pseudized with 0 coefficients 


     PseudoPot. # 2 for Na read from file:
     ./../ps/Na.pbe-spnl-kjpaw_psl.1.0.0.UPF
     MD5 check sum: 09e782c158f17eb2240230c4112357ee
     Pseudo is Projector augmented-wave + core cor, Zval =  9.0
     Generated using "atomic" code by A. Dal Corso v.6.3
     Shape of augmentation charge: PSQ
     Using radial grid of 1121 points,  4 beta functions with: 
                l(1) =   0
                l(2) =   0
                l(3) =   1
                l(4) =   1
     Q(r) pseudized with 0 coefficients 


     PseudoPot. # 3 for Cs read from file:
     ./../ps/Cs.pbe-spnl-kjpaw_psl.1.0.0.UPF
     MD5 check sum: f98336d4a4407e24c1ab1e3bc36275e8
     Pseudo is Projector augmented-wave + core cor, Zval = -5.0
     Generated using "atomic" code by A. Dal Corso v.6.2.2
     Shape of augmentation charge: PSQ
     Using radial grid of 1251 points,  6 beta functions with: 
                l(1) =   0
                l(2) =   0
                l(3) =   1
                l(4) =   1
                l(5) =   2
                l(6) =   2
     Q(r) pseudized with 0 coefficients 


     atomic species   valence    mass     pseudopotential
        N              5.00    14.00670     N ( 1.00)
        Na             9.00    22.98977     Na( 1.00)
        Cs            -5.00   132.90545     Cs( 1.00)

     24 Sym. Ops. (no inversion) found



   Cartesian axes

     site n.     atom                  positions (alat units)
         1           N   tau(   1) = (   0.0000000   0.0000000   0.0000000  )
         2           Na  tau(   2) = (  -0.2500000   0.2500000   0.2500000  )
         3           Cs  tau(   3) = (  -0.7500000   0.7500000   0.7500000  )

     number of k points=   110  Methfessel-Paxton smearing, width (Ry)=  0.0200

     Number of k-points >= 100: set verbosity='high' to print them.

     Dense  grid:    50333 G-vectors     FFT dimensions: (  54,  54,  54)

     Estimated max dynamical RAM per process >      44.82 MB

     Estimated total dynamical RAM >     358.58 MB

     Check: negative/imaginary core charge=   -0.000005    0.000000

     Initial potential from superposition of free atoms

     starting charge   22.95298, renormalised to    9.00000
     Starting wfcs are   14 randomized atomic wfcs
     Checking if some PAW data can be deallocated... 

     total cpu time spent up to now is        4.7 secs

     Self-consistent Calculation

     iteration #  1     ecut=    61.00 Ry     beta= 0.40
     Davidson diagonalization with overlap
     ethr =  1.00E-02,  avg # of iterations = 12.4

     total cpu time spent up to now is       15.2 secs

     total energy              =    -717.49461575 Ry
     Harris-Foulkes estimate   =    -745.44418734 Ry
     estimated scf accuracy    <      48.53109674 Ry

     iteration #  2     ecut=    61.00 Ry     beta= 0.40
     Davidson diagonalization with overlap
     ethr =  1.00E-02,  avg # of iterations =  3.0

     total cpu time spent up to now is       20.3 secs

     total energy              =    -709.71411608 Ry
     Harris-Foulkes estimate   =    -719.41043563 Ry
     estimated scf accuracy    <      11.21116330 Ry

     iteration #  3     ecut=    61.00 Ry     beta= 0.40
     Davidson diagonalization with overlap
     ethr =  1.00E-02,  avg # of iterations =  9.9

     negative rho (up, down):  9.290E-02 0.000E+00

     total cpu time spent up to now is       29.8 secs

     total energy              =    -712.57140212 Ry
     Harris-Foulkes estimate   =    -713.18842600 Ry
     estimated scf accuracy    <       1.11685778 Ry

     iteration #  4     ecut=    61.00 Ry     beta= 0.40
     Davidson diagonalization with overlap
     ethr =  1.00E-02,  avg # of iterations =  3.4

     negative rho (up, down):  1.822E-01 0.000E+00

     total cpu time spent up to now is       34.5 secs

     total energy              =    -712.72053574 Ry
     Harris-Foulkes estimate   =    -712.91626561 Ry
     estimated scf accuracy    <       0.28601735 Ry

     iteration #  5     ecut=    61.00 Ry     beta= 0.40
     Davidson diagonalization with overlap
     ethr =  3.18E-03,  avg # of iterations =  5.7

     negative rho (up, down):  2.242E-01 0.000E+00

     total cpu time spent up to now is       41.3 secs

     total energy              =    -712.76476612 Ry
     Harris-Foulkes estimate   =    -712.81822999 Ry
     estimated scf accuracy    <       0.09402646 Ry

     iteration #  6     ecut=    61.00 Ry     beta= 0.40
     Davidson diagonalization with overlap
     ethr =  1.04E-03,  avg # of iterations =  2.7

     negative rho (up, down):  2.229E-01 0.000E+00

     total cpu time spent up to now is       45.9 secs

     total energy              =    -712.78302679 Ry
     Harris-Foulkes estimate   =    -712.78303278 Ry
     estimated scf accuracy    <       0.00003808 Ry

     iteration #  7     ecut=    61.00 Ry     beta= 0.40
     Davidson diagonalization with overlap
     ethr =  4.23E-07,  avg # of iterations = 13.0

     negative rho (up, down):  2.224E-01 0.000E+00

     total cpu time spent up to now is       57.5 secs

     total energy              =    -712.78416676 Ry
     Harris-Foulkes estimate   =    -712.78418853 Ry
     estimated scf accuracy    <       0.00002255 Ry

     iteration #  8     ecut=    61.00 Ry     beta= 0.40
     Davidson diagonalization with overlap
     ethr =  2.51E-07,  avg # of iterations =  3.2

     negative rho (up, down):  2.232E-01 0.000E+00

     total cpu time spent up to now is       62.0 secs

     total energy              =    -712.78417915 Ry
     Harris-Foulkes estimate   =    -712.78418122 Ry
     estimated scf accuracy    <       0.00000582 Ry

     iteration #  9     ecut=    61.00 Ry     beta= 0.40
     Davidson diagonalization with overlap
     ethr =  6.47E-08,  avg # of iterations =  2.0

     negative rho (up, down):  2.231E-01 0.000E+00

     total cpu time spent up to now is       66.1 secs

     total energy              =    -712.78417846 Ry
     Harris-Foulkes estimate   =    -712.78418065 Ry
     estimated scf accuracy    <       0.00000142 Ry

     iteration # 10     ecut=    61.00 Ry     beta= 0.40
     Davidson diagonalization with overlap
     ethr =  1.58E-08,  avg # of iterations =  2.1

     negative rho (up, down):  2.231E-01 0.000E+00

     total cpu time spent up to now is       70.2 secs

     total energy              =    -712.78417817 Ry
     Harris-Foulkes estimate   =    -712.78417866 Ry
     estimated scf accuracy    <       0.00000028 Ry

     iteration # 11     ecut=    61.00 Ry     beta= 0.40
     Davidson diagonalization with overlap
     ethr =  3.10E-09,  avg # of iterations =  2.5

     negative rho (up, down):  2.231E-01 0.000E+00

     total cpu time spent up to now is       74.8 secs

     total energy              =    -712.78417823 Ry
     Harris-Foulkes estimate   =    -712.78417826 Ry
     estimated scf accuracy    <       0.00000002 Ry

     iteration # 12     ecut=    61.00 Ry     beta= 0.40
     Davidson diagonalization with overlap
     ethr =  2.04E-10,  avg # of iterations =  3.1

     negative rho (up, down):  2.231E-01 0.000E+00

     total cpu time spent up to now is       79.8 secs

     End of self-consistent calculation

     Number of k-points >= 100: set verbosity='high' to print the bands.

     the Fermi energy is  -323.9071 ev

!    total energy              =    -712.78417824 Ry
     Harris-Foulkes estimate   =    -712.78417824 Ry
     estimated scf accuracy    <          7.9E-10 Ry

     total all-electron energy =    -16167.869954 Ry

     The total energy is the sum of the following terms:

     one-electron contribution =    -316.86831233 Ry
     hartree contribution      =      54.83071424 Ry
     xc contribution           =     -28.96024851 Ry
     ewald contribution        =     -36.56760677 Ry
     one-center paw contrib.   =    -385.21007912 Ry
     smearing contrib. (-TS)   =      -0.00864574 Ry

     convergence has been achieved in  12 iterations

     negative rho (up, down):  2.231E-01 0.000E+00

     Forces acting on atoms (cartesian axes, Ry/au):

     atom    1 type  1   force =     0.00000000   -0.00000000    0.00000000
     atom    2 type  2   force =     0.00000000    0.00000000    0.00000000
     atom    3 type  3   force =     0.00000000   -0.00000000    0.00000000

     Total force =     0.000000     Total SCF correction =     0.000000


     Computing stress (Cartesian axis) and pressure


     negative rho (up, down):  2.231E-01 0.000E+00
          total   stress  (Ry/bohr**3)                   (kbar)     P=********
  -0.14349634  -0.00000000   0.00000000     -21109.04     -0.00      0.00
  -0.00000000  -0.14349634   0.00000000         -0.00 -21109.04      0.00
   0.00000000   0.00000000  -0.14349634          0.00      0.00 -21109.04


     Writing output data file NNaCs.save/

     init_run     :      2.47s CPU      2.85s WALL (       1 calls)
     electrons    :     70.67s CPU     75.08s WALL (       1 calls)
     forces       :      0.63s CPU      0.68s WALL (       1 calls)
     stress       :      1.55s CPU      1.70s WALL (       1 calls)

     Called by init_run:
     wfcinit      :      1.97s CPU      2.17s WALL (       1 calls)
     potinit      :      0.10s CPU      0.18s WALL (       1 calls)
     hinit0       :      0.32s CPU      0.38s WALL (       1 calls)

     Called by electrons:
     c_bands      :     61.07s CPU     64.36s WALL (      12 calls)
     sum_band     :      7.83s CPU      8.18s WALL (      12 calls)
     v_of_rho     :      0.23s CPU      0.30s WALL (      13 calls)
     newd         :      0.82s CPU      0.85s WALL (      13 calls)
     PAW_pot      :      0.74s CPU      1.49s WALL (      13 calls)
     mix_rho      :      0.07s CPU      0.07s WALL (      12 calls)

     Called by c_bands:
     init_us_2    :      1.76s CPU      1.83s WALL (    2970 calls)
     cegterg      :     58.58s CPU     61.71s WALL (    1320 calls)

     Called by sum_band:
     sum_band:bec :      0.04s CPU      0.04s WALL (    1320 calls)
     addusdens    :      0.68s CPU      0.70s WALL (      12 calls)

     Called by *egterg:
     h_psi        :     45.67s CPU     48.18s WALL (    8349 calls)
     s_psi        :      2.82s CPU      2.92s WALL (    8349 calls)
     g_psi        :      0.16s CPU      0.16s WALL (    6919 calls)
     cdiaghg      :      1.79s CPU      1.87s WALL (    8239 calls)

     Called by h_psi:
     h_psi:pot    :     45.21s CPU     47.70s WALL (    8349 calls)
     h_psi:calbec :      4.94s CPU      5.23s WALL (    8349 calls)
     vloc_psi     :     36.63s CPU     38.69s WALL (    8349 calls)
     add_vuspsi   :      3.58s CPU      3.74s WALL (    8349 calls)

     General routines
     calbec       :      6.36s CPU      6.76s WALL (   10219 calls)
     fft          :      0.11s CPU      0.14s WALL (     169 calls)
     ffts         :      0.01s CPU      0.01s WALL (      12 calls)
     fftw         :     34.70s CPU     36.69s WALL (   99730 calls)

     Parallel routines
     fft_scatt_xy :      4.11s CPU      4.31s WALL (   99911 calls)
     fft_scatt_yz :      6.88s CPU      7.61s WALL (   99911 calls)

     PWSCF        :  1m17.21s CPU     1m22.36s WALL


   This run was terminated on:  13:20:54  23Oct2018            

=------------------------------------------------------------------------------=
   JOB DONE.
=------------------------------------------------------------------------------=
