
     Program PWSCF v.6.3MaX starts on 23Oct2018 at 16:47:27 

     This program is part of the open-source Quantum ESPRESSO suite
     for quantum simulation of materials; please cite
         "P. Giannozzi et al., J. Phys.:Condens. Matter 21 395502 (2009);
         "P. Giannozzi et al., J. Phys.:Condens. Matter 29 465901 (2017);
          URL http://www.quantum-espresso.org", 
     in publications or presentations arising from this work. More details at
     http://www.quantum-espresso.org/quote

     Parallel version (MPI), running on     8 processors

     MPI processes distributed on     1 nodes
     R & G space division:  proc/nbgrp/npool/nimage =       8
     Waiting for input...
     Reading input from standard input
Warning: card &CELL ignored
Warning: card                CELL_DYNAMICS = 'BFGS' , ignored
Warning: card / ignored

     Current dimensions of program PWSCF are:
     Max number of different atomic species (ntypx) = 10
     Max number of k-points (npk) =  40000
     Max angular momentum in pseudopotentials (lmaxx) =  3
               file N.pbe-n-kjpaw_psl.1.0.0.UPF: wavefunction(s)  2S renormalized
               file Na.pbe-spnl-kjpaw_psl.1.0.0.UPF: wavefunction(s)  2P renormalized

     Subspace diagonalization in iterative solution of the eigenvalue problem:
     a serial algorithm will be used


     Parallelization info
     --------------------
     sticks:   dense  smooth     PW     G-vecs:    dense   smooth      PW
     Min         323     323     93                10978    10978    1691
     Max         324     324     94                10983    10983    1696
     Sum        2587    2587    745                87843    87843   13539



     bravais-lattice index     =            2
     lattice parameter (alat)  =      15.4000  a.u.
     unit-cell volume          =     913.0660 (a.u.)^3
     number of atoms/cell      =            3
     number of atomic types    =            3
     number of electrons       =         9.00
     number of Kohn-Sham states=            9
     kinetic-energy cutoff     =      80.0000  Ry
     charge density cutoff     =     320.0000  Ry
     convergence threshold     =      1.0E-09
     mixing beta               =       0.4000
     number of iterations used =            8  plain     mixing
     Exchange-correlation      = SLA PW PBX PBC ( 1  4  3  4 0 0)

     celldm(1)=  15.400000  celldm(2)=   0.000000  celldm(3)=   0.000000
     celldm(4)=   0.000000  celldm(5)=   0.000000  celldm(6)=   0.000000

     crystal axes: (cart. coord. in units of alat)
               a(1) = (  -0.500000   0.000000   0.500000 )  
               a(2) = (   0.000000   0.500000   0.500000 )  
               a(3) = (  -0.500000   0.500000   0.000000 )  

     reciprocal axes: (cart. coord. in units 2 pi/alat)
               b(1) = ( -1.000000 -1.000000  1.000000 )  
               b(2) = (  1.000000  1.000000  1.000000 )  
               b(3) = ( -1.000000  1.000000 -1.000000 )  


     PseudoPot. # 1 for N  read from file:
     ./ps/N.pbe-n-kjpaw_psl.1.0.0.UPF
     MD5 check sum: 200139db3989ad6e773ddd42f12fc3a8
     Pseudo is Projector augmented-wave + core cor, Zval =  5.0
     Generated using "atomic" code by A. Dal Corso v.6.3
     Shape of augmentation charge: PSQ
     Using radial grid of 1085 points,  4 beta functions with: 
                l(1) =   0
                l(2) =   0
                l(3) =   1
                l(4) =   1
     Q(r) pseudized with 0 coefficients 


     PseudoPot. # 2 for Na read from file:
     ./ps/Na.pbe-spnl-kjpaw_psl.1.0.0.UPF
     MD5 check sum: 09e782c158f17eb2240230c4112357ee
     Pseudo is Projector augmented-wave + core cor, Zval =  9.0
     Generated using "atomic" code by A. Dal Corso v.6.3
     Shape of augmentation charge: PSQ
     Using radial grid of 1121 points,  4 beta functions with: 
                l(1) =   0
                l(2) =   0
                l(3) =   1
                l(4) =   1
     Q(r) pseudized with 0 coefficients 


     PseudoPot. # 3 for Cs read from file:
     ./ps/Cs.pbe-spnl-kjpaw_psl.1.0.0.UPF
     MD5 check sum: f98336d4a4407e24c1ab1e3bc36275e8
     Pseudo is Projector augmented-wave + core cor, Zval = -5.0
     Generated using "atomic" code by A. Dal Corso v.6.2.2
     Shape of augmentation charge: PSQ
     Using radial grid of 1251 points,  6 beta functions with: 
                l(1) =   0
                l(2) =   0
                l(3) =   1
                l(4) =   1
                l(5) =   2
                l(6) =   2
     Q(r) pseudized with 0 coefficients 


     atomic species   valence    mass     pseudopotential
        N              5.00    14.00670     N ( 1.00)
        Na             9.00    22.98977     Na( 1.00)
        Cs            -5.00   132.90545     Cs( 1.00)

     24 Sym. Ops. (no inversion) found



   Cartesian axes

     site n.     atom                  positions (alat units)
         1           N   tau(   1) = (   0.0000000   0.0000000   0.0000000  )
         2           Na  tau(   2) = (  -0.2500000   0.2500000   0.2500000  )
         3           Cs  tau(   3) = (  -0.7500000   0.7500000   0.7500000  )

     number of k points=   110  Methfessel-Paxton smearing, width (Ry)=  0.0200

     Number of k-points >= 100: set verbosity='high' to print them.

     Dense  grid:    87843 G-vectors     FFT dimensions: (  64,  64,  64)

     Estimated max dynamical RAM per process >      73.44 MB

     Estimated total dynamical RAM >     587.52 MB

     Check: negative/imaginary core charge=   -0.000002    0.000000

     Initial potential from superposition of free atoms

     starting charge   22.95298, renormalised to    9.00000
     Starting wfcs are   14 randomized atomic wfcs
     Checking if some PAW data can be deallocated... 

     total cpu time spent up to now is        7.1 secs

     Self-consistent Calculation

     iteration #  1     ecut=    80.00 Ry     beta= 0.40
     Davidson diagonalization with overlap
     ethr =  1.00E-02,  avg # of iterations =  8.2

     total cpu time spent up to now is       25.3 secs

     total energy              =    -706.22475348 Ry
     Harris-Foulkes estimate   =    -734.83959661 Ry
     estimated scf accuracy    <      49.70415003 Ry

     iteration #  2     ecut=    80.00 Ry     beta= 0.40
     Davidson diagonalization with overlap
     ethr =  1.00E-02,  avg # of iterations =  3.0

     total cpu time spent up to now is       36.8 secs

     total energy              =    -697.87740345 Ry
     Harris-Foulkes estimate   =    -708.09872411 Ry
     estimated scf accuracy    <      11.76833437 Ry

     iteration #  3     ecut=    80.00 Ry     beta= 0.40
     Davidson diagonalization with overlap
     ethr =  1.00E-02,  avg # of iterations =  2.7

     total cpu time spent up to now is       47.8 secs

     total energy              =    -700.10744395 Ry
     Harris-Foulkes estimate   =    -700.73428776 Ry
     estimated scf accuracy    <       1.14137227 Ry

     iteration #  4     ecut=    80.00 Ry     beta= 0.40
     Davidson diagonalization with overlap
     ethr =  1.00E-02,  avg # of iterations =  2.0

     negative rho (up, down):  3.946E-08 0.000E+00

     total cpu time spent up to now is       57.0 secs

     total energy              =    -700.18819327 Ry
     Harris-Foulkes estimate   =    -700.45048584 Ry
     estimated scf accuracy    <       0.31436327 Ry

     iteration #  5     ecut=    80.00 Ry     beta= 0.40
     Davidson diagonalization with overlap
     ethr =  3.49E-03,  avg # of iterations =  2.0

     negative rho (up, down):  1.720E-04 0.000E+00

     total cpu time spent up to now is       65.6 secs

     total energy              =    -700.24233437 Ry
     Harris-Foulkes estimate   =    -700.27981661 Ry
     estimated scf accuracy    <       0.06381396 Ry

     iteration #  6     ecut=    80.00 Ry     beta= 0.40
     Davidson diagonalization with overlap
     ethr =  7.09E-04,  avg # of iterations =  5.7

     negative rho (up, down):  1.972E-04 0.000E+00

     total cpu time spent up to now is       77.0 secs

     total energy              =    -700.38270854 Ry
     Harris-Foulkes estimate   =    -700.38715067 Ry
     estimated scf accuracy    <       0.04660205 Ry

     iteration #  7     ecut=    80.00 Ry     beta= 0.40
     Davidson diagonalization with overlap
     ethr =  5.18E-04,  avg # of iterations =  1.5

     negative rho (up, down):  3.133E-04 0.000E+00

     total cpu time spent up to now is       85.2 secs

     total energy              =    -700.35423367 Ry
     Harris-Foulkes estimate   =    -700.38324648 Ry
     estimated scf accuracy    <       0.04051966 Ry

     iteration #  8     ecut=    80.00 Ry     beta= 0.40
     Davidson diagonalization with overlap
     ethr =  4.50E-04,  avg # of iterations =  2.1

     negative rho (up, down):  4.164E-04 0.000E+00

     total cpu time spent up to now is       93.8 secs

     total energy              =    -700.35661194 Ry
     Harris-Foulkes estimate   =    -700.35528895 Ry
     estimated scf accuracy    <       0.00181346 Ry

     iteration #  9     ecut=    80.00 Ry     beta= 0.40
     Davidson diagonalization with overlap
     ethr =  2.01E-05,  avg # of iterations =  9.5

     negative rho (up, down):  7.085E-04 0.000E+00

     total cpu time spent up to now is      110.3 secs

     total energy              =    -700.35420696 Ry
     Harris-Foulkes estimate   =    -700.35680213 Ry
     estimated scf accuracy    <       0.00359244 Ry

     iteration # 10     ecut=    80.00 Ry     beta= 0.40
     Davidson diagonalization with overlap
     ethr =  2.01E-05,  avg # of iterations =  2.0

     negative rho (up, down):  6.506E-04 0.000E+00

     total cpu time spent up to now is      119.8 secs

     total energy              =    -700.35422728 Ry
     Harris-Foulkes estimate   =    -700.35438399 Ry
     estimated scf accuracy    <       0.00020670 Ry

     iteration # 11     ecut=    80.00 Ry     beta= 0.40
     Davidson diagonalization with overlap
     c_bands:  1 eigenvalues not converged
     ethr =  2.30E-06,  avg # of iterations =  9.1

     negative rho (up, down):  6.465E-04 0.000E+00

     total cpu time spent up to now is      135.1 secs

     total energy              =    -700.35423949 Ry
     Harris-Foulkes estimate   =    -700.35423649 Ry
     estimated scf accuracy    <       0.00000167 Ry

     iteration # 12     ecut=    80.00 Ry     beta= 0.40
     Davidson diagonalization with overlap
     ethr =  1.85E-08,  avg # of iterations =  3.1

     negative rho (up, down):  6.591E-04 0.000E+00

     total cpu time spent up to now is      144.8 secs

     total energy              =    -700.35423515 Ry
     Harris-Foulkes estimate   =    -700.35423977 Ry
     estimated scf accuracy    <       0.00000640 Ry

     iteration # 13     ecut=    80.00 Ry     beta= 0.40
     Davidson diagonalization with overlap
     ethr =  1.85E-08,  avg # of iterations =  2.0

     negative rho (up, down):  6.650E-04 0.000E+00

     total cpu time spent up to now is      153.4 secs

     total energy              =    -700.35423533 Ry
     Harris-Foulkes estimate   =    -700.35423535 Ry
     estimated scf accuracy    <       0.00000001 Ry

     iteration # 14     ecut=    80.00 Ry     beta= 0.40
     Davidson diagonalization with overlap
     ethr =  1.61E-10,  avg # of iterations =  4.4

     negative rho (up, down):  6.629E-04 0.000E+00

     total cpu time spent up to now is      165.6 secs

     total energy              =    -700.35423532 Ry
     Harris-Foulkes estimate   =    -700.35423535 Ry
     estimated scf accuracy    <       0.00000004 Ry

     iteration # 15     ecut=    80.00 Ry     beta= 0.40
     Davidson diagonalization with overlap
     ethr =  1.61E-10,  avg # of iterations =  2.0

     negative rho (up, down):  6.631E-04 0.000E+00

     total cpu time spent up to now is      174.8 secs

     End of self-consistent calculation

     Number of k-points >= 100: set verbosity='high' to print the bands.

     the Fermi energy is  -288.9440 ev

!    total energy              =    -700.35423532 Ry
     Harris-Foulkes estimate   =    -700.35423532 Ry
     estimated scf accuracy    <          6.0E-11 Ry

     total all-electron energy =    -16155.440011 Ry

     The total energy is the sum of the following terms:

     one-electron contribution =    -308.69937899 Ry
     hartree contribution      =      56.68072615 Ry
     xc contribution           =     -29.00209450 Ry
     ewald contribution        =     -34.71548123 Ry
     one-center paw contrib.   =    -384.61236486 Ry
     smearing contrib. (-TS)   =      -0.00564189 Ry

     convergence has been achieved in  15 iterations

     negative rho (up, down):  6.631E-04 0.000E+00

     Forces acting on atoms (cartesian axes, Ry/au):

     atom    1 type  1   force =     0.00000000    0.00000000    0.00000000
     atom    2 type  2   force =    -0.00000000    0.00000000   -0.00000000
     atom    3 type  3   force =     0.00000000    0.00000000    0.00000000

     Total force =     0.000000     Total SCF correction =     0.000000


     Computing stress (Cartesian axis) and pressure


     negative rho (up, down):  6.631E-04 0.000E+00
          total   stress  (Ry/bohr**3)                   (kbar)     P=********
  -0.07413478  -0.00000000  -0.00000000     -10905.60     -0.00     -0.00
  -0.00000000  -0.07413478   0.00000000         -0.00 -10905.60      0.00
  -0.00000000   0.00000000  -0.07413478         -0.00      0.00 -10905.60


     Writing output data file NNaCs.save/

     init_run     :      4.94s CPU      5.29s WALL (       1 calls)
     electrons    :    162.64s CPU    167.70s WALL (       1 calls)
     forces       :      1.28s CPU      1.30s WALL (       1 calls)
     stress       :      3.05s CPU      3.09s WALL (       1 calls)

     Called by init_run:
     wfcinit      :      4.15s CPU      4.28s WALL (       1 calls)
     potinit      :      0.13s CPU      0.22s WALL (       1 calls)
     hinit0       :      0.45s CPU      0.55s WALL (       1 calls)

     Called by electrons:
     c_bands      :    131.98s CPU    135.24s WALL (      15 calls)
     sum_band     :     27.21s CPU     27.93s WALL (      15 calls)
     v_of_rho     :      0.56s CPU      0.73s WALL (      16 calls)
     newd         :      2.02s CPU      2.05s WALL (      16 calls)
     PAW_pot      :      0.80s CPU      1.76s WALL (      16 calls)
     mix_rho      :      0.20s CPU      0.20s WALL (      15 calls)

     Called by c_bands:
     init_us_2    :      3.99s CPU      4.09s WALL (    3630 calls)
     cegterg      :    126.50s CPU    129.61s WALL (    1650 calls)

     Called by sum_band:
     sum_band:bec :      0.05s CPU      0.05s WALL (    1650 calls)
     addusdens    :      1.68s CPU      1.70s WALL (      15 calls)

     Called by *egterg:
     h_psi        :    108.24s CPU    111.01s WALL (    8282 calls)
     s_psi        :      5.21s CPU      5.33s WALL (    8282 calls)
     g_psi        :      0.24s CPU      0.25s WALL (    6522 calls)
     cdiaghg      :      1.62s CPU      1.66s WALL (    8172 calls)

     Called by h_psi:
     h_psi:pot    :    107.21s CPU    109.96s WALL (    8282 calls)
     h_psi:calbec :      9.00s CPU      9.29s WALL (    8282 calls)
     vloc_psi     :     91.52s CPU     93.80s WALL (    8282 calls)
     add_vuspsi   :      6.62s CPU      6.80s WALL (    8282 calls)

     General routines
     calbec       :     11.84s CPU     12.22s WALL (   10482 calls)
     fft          :      0.31s CPU      0.37s WALL (     202 calls)
     ffts         :      0.03s CPU      0.03s WALL (      15 calls)
     fftw         :     75.28s CPU     77.24s WALL (  103800 calls)

     Parallel routines
     fft_scatt_xy :     15.52s CPU     15.93s WALL (  104017 calls)
     fft_scatt_yz :     10.25s CPU     10.59s WALL (  104017 calls)

     PWSCF        :  2m53.82s CPU     2m59.48s WALL


   This run was terminated on:  16:50:26  23Oct2018            

=------------------------------------------------------------------------------=
   JOB DONE.
=------------------------------------------------------------------------------=
