
     Program PWSCF v.6.3MaX starts on 23Oct2018 at 15:25:50 

     This program is part of the open-source Quantum ESPRESSO suite
     for quantum simulation of materials; please cite
         "P. Giannozzi et al., J. Phys.:Condens. Matter 21 395502 (2009);
         "P. Giannozzi et al., J. Phys.:Condens. Matter 29 465901 (2017);
          URL http://www.quantum-espresso.org", 
     in publications or presentations arising from this work. More details at
     http://www.quantum-espresso.org/quote

     Parallel version (MPI), running on     8 processors

     MPI processes distributed on     1 nodes
     R & G space division:  proc/nbgrp/npool/nimage =       8
     Waiting for input...
     Reading input from standard input
Warning: card &CELL ignored
Warning: card                CELL_DYNAMICS = 'BFGS' , ignored
Warning: card / ignored

     Current dimensions of program PWSCF are:
     Max number of different atomic species (ntypx) = 10
     Max number of k-points (npk) =  40000
     Max angular momentum in pseudopotentials (lmaxx) =  3
               file N.pbe-n-kjpaw_psl.1.0.0.UPF: wavefunction(s)  2S renormalized
               file Na.pbe-spnl-kjpaw_psl.1.0.0.UPF: wavefunction(s)  2P renormalized

     Subspace diagonalization in iterative solution of the eigenvalue problem:
     a serial algorithm will be used


     Parallelization info
     --------------------
     sticks:   dense  smooth     PW     G-vecs:    dense   smooth      PW
     Min         270     270     78                 8287     8287    1272
     Max         271     271     79                 8290     8290    1273
     Sum        2161    2161    625                66299    66299   10177



     bravais-lattice index     =            2
     lattice parameter (alat)  =      14.0000  a.u.
     unit-cell volume          =     686.0000 (a.u.)^3
     number of atoms/cell      =            3
     number of atomic types    =            3
     number of electrons       =         9.00
     number of Kohn-Sham states=            9
     kinetic-energy cutoff     =      80.0000  Ry
     charge density cutoff     =     320.0000  Ry
     convergence threshold     =      1.0E-09
     mixing beta               =       0.4000
     number of iterations used =            8  plain     mixing
     Exchange-correlation      = SLA PW PBX PBC ( 1  4  3  4 0 0)

     celldm(1)=  14.000000  celldm(2)=   0.000000  celldm(3)=   0.000000
     celldm(4)=   0.000000  celldm(5)=   0.000000  celldm(6)=   0.000000

     crystal axes: (cart. coord. in units of alat)
               a(1) = (  -0.500000   0.000000   0.500000 )  
               a(2) = (   0.000000   0.500000   0.500000 )  
               a(3) = (  -0.500000   0.500000   0.000000 )  

     reciprocal axes: (cart. coord. in units 2 pi/alat)
               b(1) = ( -1.000000 -1.000000  1.000000 )  
               b(2) = (  1.000000  1.000000  1.000000 )  
               b(3) = ( -1.000000  1.000000 -1.000000 )  


     PseudoPot. # 1 for N  read from file:
     ./ps/N.pbe-n-kjpaw_psl.1.0.0.UPF
     MD5 check sum: 200139db3989ad6e773ddd42f12fc3a8
     Pseudo is Projector augmented-wave + core cor, Zval =  5.0
     Generated using "atomic" code by A. Dal Corso v.6.3
     Shape of augmentation charge: PSQ
     Using radial grid of 1085 points,  4 beta functions with: 
                l(1) =   0
                l(2) =   0
                l(3) =   1
                l(4) =   1
     Q(r) pseudized with 0 coefficients 


     PseudoPot. # 2 for Na read from file:
     ./ps/Na.pbe-spnl-kjpaw_psl.1.0.0.UPF
     MD5 check sum: 09e782c158f17eb2240230c4112357ee
     Pseudo is Projector augmented-wave + core cor, Zval =  9.0
     Generated using "atomic" code by A. Dal Corso v.6.3
     Shape of augmentation charge: PSQ
     Using radial grid of 1121 points,  4 beta functions with: 
                l(1) =   0
                l(2) =   0
                l(3) =   1
                l(4) =   1
     Q(r) pseudized with 0 coefficients 


     PseudoPot. # 3 for Cs read from file:
     ./ps/Cs.pbe-spnl-kjpaw_psl.1.0.0.UPF
     MD5 check sum: f98336d4a4407e24c1ab1e3bc36275e8
     Pseudo is Projector augmented-wave + core cor, Zval = -5.0
     Generated using "atomic" code by A. Dal Corso v.6.2.2
     Shape of augmentation charge: PSQ
     Using radial grid of 1251 points,  6 beta functions with: 
                l(1) =   0
                l(2) =   0
                l(3) =   1
                l(4) =   1
                l(5) =   2
                l(6) =   2
     Q(r) pseudized with 0 coefficients 


     atomic species   valence    mass     pseudopotential
        N              5.00    14.00670     N ( 1.00)
        Na             9.00    22.98977     Na( 1.00)
        Cs            -5.00   132.90545     Cs( 1.00)

     24 Sym. Ops. (no inversion) found



   Cartesian axes

     site n.     atom                  positions (alat units)
         1           N   tau(   1) = (   0.0000000   0.0000000   0.0000000  )
         2           Na  tau(   2) = (  -0.2500000   0.2500000   0.2500000  )
         3           Cs  tau(   3) = (  -0.7500000   0.7500000   0.7500000  )

     number of k points=   110  Methfessel-Paxton smearing, width (Ry)=  0.0200

     Number of k-points >= 100: set verbosity='high' to print them.

     Dense  grid:    66299 G-vectors     FFT dimensions: (  60,  60,  60)

     Estimated max dynamical RAM per process >      57.26 MB

     Estimated total dynamical RAM >     458.09 MB

     Check: negative/imaginary core charge=   -0.000002    0.000000

     Initial potential from superposition of free atoms

     starting charge   22.95298, renormalised to    9.00000
     Starting wfcs are   14 randomized atomic wfcs
     Checking if some PAW data can be deallocated... 

     total cpu time spent up to now is        5.5 secs

     Self-consistent Calculation

     iteration #  1     ecut=    80.00 Ry     beta= 0.40
     Davidson diagonalization with overlap
     ethr =  1.00E-02,  avg # of iterations =  5.0

     total cpu time spent up to now is       16.2 secs

     total energy              =    -732.66327775 Ry
     Harris-Foulkes estimate   =    -755.54413974 Ry
     estimated scf accuracy    <      39.39326999 Ry

     iteration #  2     ecut=    80.00 Ry     beta= 0.40
     Davidson diagonalization with overlap
     ethr =  1.00E-02,  avg # of iterations =  3.0

     total cpu time spent up to now is       23.0 secs

     total energy              =    -725.29420995 Ry
     Harris-Foulkes estimate   =    -733.99955739 Ry
     estimated scf accuracy    <       9.89822862 Ry

     iteration #  3     ecut=    80.00 Ry     beta= 0.40
     Davidson diagonalization with overlap
     ethr =  1.00E-02,  avg # of iterations =  3.1

     total cpu time spent up to now is       30.6 secs

     total energy              =    -725.87369997 Ry
     Harris-Foulkes estimate   =    -737.12203705 Ry
     estimated scf accuracy    <      43.56194836 Ry

     iteration #  4     ecut=    80.00 Ry     beta= 0.40
     Davidson diagonalization with overlap
     ethr =  1.00E-02,  avg # of iterations =  2.0

     total cpu time spent up to now is       36.8 secs

     total energy              =    -728.81719871 Ry
     Harris-Foulkes estimate   =    -728.84168921 Ry
     estimated scf accuracy    <       0.28295647 Ry

     iteration #  5     ecut=    80.00 Ry     beta= 0.40
     Davidson diagonalization with overlap
     ethr =  3.14E-03,  avg # of iterations =  3.8

     negative rho (up, down):  2.915E-06 0.000E+00

     total cpu time spent up to now is       43.7 secs

     total energy              =    -727.97780603 Ry
     Harris-Foulkes estimate   =    -729.19303693 Ry
     estimated scf accuracy    <       3.38348430 Ry

     iteration #  6     ecut=    80.00 Ry     beta= 0.40
     Davidson diagonalization with overlap
     ethr =  3.14E-03,  avg # of iterations =  2.0

     negative rho (up, down):  3.747E-05 0.000E+00

     total cpu time spent up to now is       49.9 secs

     total energy              =    -728.67225011 Ry
     Harris-Foulkes estimate   =    -728.68060809 Ry
     estimated scf accuracy    <       0.01966915 Ry

     iteration #  7     ecut=    80.00 Ry     beta= 0.40
     Davidson diagonalization with overlap
     ethr =  2.19E-04,  avg # of iterations =  6.7

     negative rho (up, down):  5.332E-05 0.000E+00

     total cpu time spent up to now is       58.3 secs

     total energy              =    -728.67977268 Ry
     Harris-Foulkes estimate   =    -728.67685557 Ry
     estimated scf accuracy    <       0.01098215 Ry

     iteration #  8     ecut=    80.00 Ry     beta= 0.40
     Davidson diagonalization with overlap
     ethr =  1.22E-04,  avg # of iterations =  1.0

     negative rho (up, down):  2.550E-04 0.000E+00

     total cpu time spent up to now is       63.4 secs

     total energy              =    -728.67014727 Ry
     Harris-Foulkes estimate   =    -728.67997914 Ry
     estimated scf accuracy    <       0.01489131 Ry

     iteration #  9     ecut=    80.00 Ry     beta= 0.40
     Davidson diagonalization with overlap
     ethr =  1.22E-04,  avg # of iterations =  1.0

     negative rho (up, down):  1.804E-04 0.000E+00

     total cpu time spent up to now is       68.6 secs

     total energy              =    -728.67145036 Ry
     Harris-Foulkes estimate   =    -728.67134480 Ry
     estimated scf accuracy    <       0.00102835 Ry

     iteration # 10     ecut=    80.00 Ry     beta= 0.40
     Davidson diagonalization with overlap
     ethr =  1.14E-05,  avg # of iterations =  2.4

     negative rho (up, down):  1.909E-04 0.000E+00

     total cpu time spent up to now is       74.4 secs

     total energy              =    -728.67183489 Ry
     Harris-Foulkes estimate   =    -728.67156909 Ry
     estimated scf accuracy    <       0.00112736 Ry

     iteration # 11     ecut=    80.00 Ry     beta= 0.40
     Davidson diagonalization with overlap
     ethr =  1.14E-05,  avg # of iterations =  1.0

     negative rho (up, down):  1.938E-04 0.000E+00

     total cpu time spent up to now is       79.6 secs

     total energy              =    -728.67179136 Ry
     Harris-Foulkes estimate   =    -728.67187707 Ry
     estimated scf accuracy    <       0.00156552 Ry

     iteration # 12     ecut=    80.00 Ry     beta= 0.40
     Davidson diagonalization with overlap
     ethr =  1.14E-05,  avg # of iterations =  1.0

     negative rho (up, down):  1.944E-04 0.000E+00

     total cpu time spent up to now is       84.8 secs

     total energy              =    -728.67134745 Ry
     Harris-Foulkes estimate   =    -728.67180012 Ry
     estimated scf accuracy    <       0.00139952 Ry

     iteration # 13     ecut=    80.00 Ry     beta= 0.40
     Davidson diagonalization with overlap
     ethr =  1.14E-05,  avg # of iterations =  1.0

     negative rho (up, down):  2.846E-04 0.000E+00

     total cpu time spent up to now is       89.9 secs

     total energy              =    -728.67076945 Ry
     Harris-Foulkes estimate   =    -728.67136640 Ry
     estimated scf accuracy    <       0.00087196 Ry

     iteration # 14     ecut=    80.00 Ry     beta= 0.40
     Davidson diagonalization with overlap
     ethr =  9.69E-06,  avg # of iterations =  2.0

     negative rho (up, down):  2.737E-04 0.000E+00

     total cpu time spent up to now is       95.9 secs

     total energy              =    -728.67090607 Ry
     Harris-Foulkes estimate   =    -728.67085127 Ry
     estimated scf accuracy    <       0.00010546 Ry

     iteration # 15     ecut=    80.00 Ry     beta= 0.40
     Davidson diagonalization with overlap
     ethr =  1.17E-06,  avg # of iterations =  4.0

     negative rho (up, down):  1.796E-04 0.000E+00

     total cpu time spent up to now is      103.0 secs

     total energy              =    -728.67073555 Ry
     Harris-Foulkes estimate   =    -728.67104219 Ry
     estimated scf accuracy    <       0.00032719 Ry

     iteration # 16     ecut=    80.00 Ry     beta= 0.40
     Davidson diagonalization with overlap
     ethr =  1.17E-06,  avg # of iterations =  3.0

     negative rho (up, down):  1.843E-04 0.000E+00

     total cpu time spent up to now is      109.6 secs

     total energy              =    -728.67078293 Ry
     Harris-Foulkes estimate   =    -728.67078937 Ry
     estimated scf accuracy    <       0.00002020 Ry

     iteration # 17     ecut=    80.00 Ry     beta= 0.40
     Davidson diagonalization with overlap
     ethr =  2.24E-07,  avg # of iterations =  1.0

     negative rho (up, down):  2.062E-04 0.000E+00

     total cpu time spent up to now is      114.8 secs

     total energy              =    -728.67077387 Ry
     Harris-Foulkes estimate   =    -728.67078381 Ry
     estimated scf accuracy    <       0.00001050 Ry

     iteration # 18     ecut=    80.00 Ry     beta= 0.40
     Davidson diagonalization with overlap
     ethr =  1.17E-07,  avg # of iterations =  3.0

     negative rho (up, down):  1.871E-04 0.000E+00

     total cpu time spent up to now is      121.4 secs

     total energy              =    -728.67077758 Ry
     Harris-Foulkes estimate   =    -728.67077763 Ry
     estimated scf accuracy    <       0.00000035 Ry

     iteration # 19     ecut=    80.00 Ry     beta= 0.40
     Davidson diagonalization with overlap
     ethr =  3.93E-09,  avg # of iterations =  2.2

     negative rho (up, down):  1.885E-04 0.000E+00

     total cpu time spent up to now is      127.5 secs

     total energy              =    -728.67077760 Ry
     Harris-Foulkes estimate   =    -728.67077765 Ry
     estimated scf accuracy    <       0.00000010 Ry

     iteration # 20     ecut=    80.00 Ry     beta= 0.40
     Davidson diagonalization with overlap
     ethr =  1.09E-09,  avg # of iterations =  1.0

     negative rho (up, down):  1.916E-04 0.000E+00

     total cpu time spent up to now is      132.8 secs

     total energy              =    -728.67077758 Ry
     Harris-Foulkes estimate   =    -728.67077761 Ry
     estimated scf accuracy    <       0.00000004 Ry

     iteration # 21     ecut=    80.00 Ry     beta= 0.40
     Davidson diagonalization with overlap
     ethr =  4.09E-10,  avg # of iterations =  2.0

     negative rho (up, down):  1.898E-04 0.000E+00

     total cpu time spent up to now is      138.9 secs

     total energy              =    -728.67077759 Ry
     Harris-Foulkes estimate   =    -728.67077760 Ry
     estimated scf accuracy    <          6.6E-09 Ry

     iteration # 22     ecut=    80.00 Ry     beta= 0.40
     Davidson diagonalization with overlap
     ethr =  7.35E-11,  avg # of iterations =  2.0

     negative rho (up, down):  1.903E-04 0.000E+00

     total cpu time spent up to now is      145.1 secs

     total energy              =    -728.67077759 Ry
     Harris-Foulkes estimate   =    -728.67077759 Ry
     estimated scf accuracy    <          3.5E-09 Ry

     iteration # 23     ecut=    80.00 Ry     beta= 0.40
     Davidson diagonalization with overlap
     ethr =  3.87E-11,  avg # of iterations =  2.0

     negative rho (up, down):  1.915E-04 0.000E+00

     total cpu time spent up to now is      151.0 secs

     End of self-consistent calculation

     Number of k-points >= 100: set verbosity='high' to print the bands.

     the Fermi energy is  -376.1208 ev

!    total energy              =    -728.67077759 Ry
     Harris-Foulkes estimate   =    -728.67077759 Ry
     estimated scf accuracy    <          1.8E-10 Ry

     total all-electron energy =    -16183.756553 Ry

     The total energy is the sum of the following terms:

     one-electron contribution =    -321.11991840 Ry
     hartree contribution      =      44.35831625 Ry
     xc contribution           =     -28.73721968 Ry
     ewald contribution        =     -38.18702935 Ry
     one-center paw contrib.   =    -384.97627194 Ry
     smearing contrib. (-TS)   =      -0.00865448 Ry

     convergence has been achieved in  23 iterations

     negative rho (up, down):  1.915E-04 0.000E+00

     Forces acting on atoms (cartesian axes, Ry/au):

     atom    1 type  1   force =     0.00000000    0.00000000   -0.00000000
     atom    2 type  2   force =     0.00000000   -0.00000000    0.00000000
     atom    3 type  3   force =     0.00000000    0.00000000   -0.00000000

     Total force =     0.000000     Total SCF correction =     0.000000


     Computing stress (Cartesian axis) and pressure


     negative rho (up, down):  1.915E-04 0.000E+00
          total   stress  (Ry/bohr**3)                   (kbar)     P=********
  -0.23046147   0.00000000  -0.00000000     -33902.05      0.00     -0.00
  -0.00000000  -0.23046147  -0.00000000         -0.00 -33902.05     -0.00
  -0.00000000  -0.00000000  -0.23046147         -0.00     -0.00 -33902.05


     Writing output data file NNaCs.save/

     init_run     :      3.30s CPU      3.63s WALL (       1 calls)
     electrons    :    140.38s CPU    145.52s WALL (       1 calls)
     forces       :      0.93s CPU      0.95s WALL (       1 calls)
     stress       :      2.25s CPU      2.27s WALL (       1 calls)

     Called by init_run:
     wfcinit      :      2.68s CPU      2.77s WALL (       1 calls)
     potinit      :      0.12s CPU      0.20s WALL (       1 calls)
     hinit0       :      0.37s CPU      0.50s WALL (       1 calls)

     Called by electrons:
     c_bands      :    109.53s CPU    112.35s WALL (      23 calls)
     sum_band     :     26.65s CPU     27.36s WALL (      23 calls)
     v_of_rho     :      0.68s CPU      0.84s WALL (      24 calls)
     newd         :      2.15s CPU      2.18s WALL (      24 calls)
     PAW_pot      :      1.21s CPU      2.69s WALL (      24 calls)
     mix_rho      :      0.23s CPU      0.24s WALL (      23 calls)

     Called by c_bands:
     init_us_2    :      4.73s CPU      4.85s WALL (    5390 calls)
     cegterg      :    103.09s CPU    105.78s WALL (    2530 calls)

     Called by sum_band:
     sum_band:bec :      0.08s CPU      0.09s WALL (    2530 calls)
     addusdens    :      1.86s CPU      1.88s WALL (      23 calls)

     Called by *egterg:
     h_psi        :     87.24s CPU     89.64s WALL (    8712 calls)
     s_psi        :      4.89s CPU      5.00s WALL (    8712 calls)
     g_psi        :      0.21s CPU      0.22s WALL (    6072 calls)
     cdiaghg      :      1.48s CPU      1.51s WALL (    8602 calls)

     Called by h_psi:
     h_psi:pot    :     86.10s CPU     88.46s WALL (    8712 calls)
     h_psi:calbec :      7.91s CPU      8.19s WALL (    8712 calls)
     vloc_psi     :     72.32s CPU     74.25s WALL (    8712 calls)
     add_vuspsi   :      5.78s CPU      5.96s WALL (    8712 calls)

     General routines
     calbec       :     10.88s CPU     11.22s WALL (   11792 calls)
     fft          :      0.31s CPU      0.36s WALL (     290 calls)
     ffts         :      0.03s CPU      0.03s WALL (      23 calls)
     fftw         :     58.67s CPU     60.30s WALL (  138388 calls)

     Parallel routines
     fft_scatt_xy :      9.26s CPU      9.53s WALL (  138701 calls)
     fft_scatt_yz :     10.35s CPU     10.69s WALL (  138701 calls)

     PWSCF        :  2m28.81s CPU     2m34.46s WALL


   This run was terminated on:  15:28:25  23Oct2018            

=------------------------------------------------------------------------------=
   JOB DONE.
=------------------------------------------------------------------------------=
