
     Program PWSCF v.6.3MaX starts on 23Oct2018 at 13:12:36 

     This program is part of the open-source Quantum ESPRESSO suite
     for quantum simulation of materials; please cite
         "P. Giannozzi et al., J. Phys.:Condens. Matter 21 395502 (2009);
         "P. Giannozzi et al., J. Phys.:Condens. Matter 29 465901 (2017);
          URL http://www.quantum-espresso.org", 
     in publications or presentations arising from this work. More details at
     http://www.quantum-espresso.org/quote

     Parallel version (MPI), running on     8 processors

     MPI processes distributed on     1 nodes
     R & G space division:  proc/nbgrp/npool/nimage =       8
     Waiting for input...
     Reading input from standard input
Warning: card &CELL ignored
Warning: card                CELL_DYNAMICS = 'BFGS' , ignored
Warning: card / ignored

     Current dimensions of program PWSCF are:
     Max number of different atomic species (ntypx) = 10
     Max number of k-points (npk) =  40000
     Max angular momentum in pseudopotentials (lmaxx) =  3
               file N.pbe-n-kjpaw_psl.1.0.0.UPF: wavefunction(s)  2S renormalized
               file Na.pbe-spnl-kjpaw_psl.1.0.0.UPF: wavefunction(s)  2P renormalized

     Subspace diagonalization in iterative solution of the eigenvalue problem:
     a serial algorithm will be used


     Parallelization info
     --------------------
     sticks:   dense  smooth     PW     G-vecs:    dense   smooth      PW
     Min         174     174     52                 4251     4251     698
     Max         175     175     53                 4252     4252     701
     Sum        1393    1393    421                34015    34015    5601



     bravais-lattice index     =            2
     lattice parameter (alat)  =      14.6200  a.u.
     unit-cell volume          =     781.2358 (a.u.)^3
     number of atoms/cell      =            3
     number of atomic types    =            3
     number of electrons       =         9.00
     number of Kohn-Sham states=            9
     kinetic-energy cutoff     =      47.0000  Ry
     charge density cutoff     =     188.0000  Ry
     convergence threshold     =      1.0E-09
     mixing beta               =       0.4000
     number of iterations used =            8  plain     mixing
     Exchange-correlation      = SLA PW PBX PBC ( 1  4  3  4 0 0)

     celldm(1)=  14.620000  celldm(2)=   0.000000  celldm(3)=   0.000000
     celldm(4)=   0.000000  celldm(5)=   0.000000  celldm(6)=   0.000000

     crystal axes: (cart. coord. in units of alat)
               a(1) = (  -0.500000   0.000000   0.500000 )  
               a(2) = (   0.000000   0.500000   0.500000 )  
               a(3) = (  -0.500000   0.500000   0.000000 )  

     reciprocal axes: (cart. coord. in units 2 pi/alat)
               b(1) = ( -1.000000 -1.000000  1.000000 )  
               b(2) = (  1.000000  1.000000  1.000000 )  
               b(3) = ( -1.000000  1.000000 -1.000000 )  


     PseudoPot. # 1 for N  read from file:
     ./../ps/N.pbe-n-kjpaw_psl.1.0.0.UPF
     MD5 check sum: 200139db3989ad6e773ddd42f12fc3a8
     Pseudo is Projector augmented-wave + core cor, Zval =  5.0
     Generated using "atomic" code by A. Dal Corso v.6.3
     Shape of augmentation charge: PSQ
     Using radial grid of 1085 points,  4 beta functions with: 
                l(1) =   0
                l(2) =   0
                l(3) =   1
                l(4) =   1
     Q(r) pseudized with 0 coefficients 


     PseudoPot. # 2 for Na read from file:
     ./../ps/Na.pbe-spnl-kjpaw_psl.1.0.0.UPF
     MD5 check sum: 09e782c158f17eb2240230c4112357ee
     Pseudo is Projector augmented-wave + core cor, Zval =  9.0
     Generated using "atomic" code by A. Dal Corso v.6.3
     Shape of augmentation charge: PSQ
     Using radial grid of 1121 points,  4 beta functions with: 
                l(1) =   0
                l(2) =   0
                l(3) =   1
                l(4) =   1
     Q(r) pseudized with 0 coefficients 


     PseudoPot. # 3 for Cs read from file:
     ./../ps/Cs.pbe-spnl-kjpaw_psl.1.0.0.UPF
     MD5 check sum: f98336d4a4407e24c1ab1e3bc36275e8
     Pseudo is Projector augmented-wave + core cor, Zval = -5.0
     Generated using "atomic" code by A. Dal Corso v.6.2.2
     Shape of augmentation charge: PSQ
     Using radial grid of 1251 points,  6 beta functions with: 
                l(1) =   0
                l(2) =   0
                l(3) =   1
                l(4) =   1
                l(5) =   2
                l(6) =   2
     Q(r) pseudized with 0 coefficients 


     atomic species   valence    mass     pseudopotential
        N              5.00    14.00670     N ( 1.00)
        Na             9.00    22.98977     Na( 1.00)
        Cs            -5.00   132.90545     Cs( 1.00)

     24 Sym. Ops. (no inversion) found



   Cartesian axes

     site n.     atom                  positions (alat units)
         1           N   tau(   1) = (   0.0000000   0.0000000   0.0000000  )
         2           Na  tau(   2) = (  -0.2500000   0.2500000   0.2500000  )
         3           Cs  tau(   3) = (  -0.7500000   0.7500000   0.7500000  )

     number of k points=   110  Methfessel-Paxton smearing, width (Ry)=  0.0200

     Number of k-points >= 100: set verbosity='high' to print them.

     Dense  grid:    34015 G-vectors     FFT dimensions: (  45,  45,  45)

     Estimated max dynamical RAM per process >      31.95 MB

     Estimated total dynamical RAM >     255.59 MB

     Check: negative/imaginary core charge=   -0.000011    0.000000

     Initial potential from superposition of free atoms

     starting charge   22.95298, renormalised to    9.00000
     Starting wfcs are   14 randomized atomic wfcs
     Checking if some PAW data can be deallocated... 

     total cpu time spent up to now is        3.4 secs

     Self-consistent Calculation

     iteration #  1     ecut=    47.00 Ry     beta= 0.40
     Davidson diagonalization with overlap
     ethr =  1.00E-02,  avg # of iterations = 12.2

     total cpu time spent up to now is        8.8 secs

     total energy              =    -717.86058726 Ry
     Harris-Foulkes estimate   =    -745.16484893 Ry
     estimated scf accuracy    <      47.16890714 Ry

     iteration #  2     ecut=    47.00 Ry     beta= 0.40
     Davidson diagonalization with overlap
     ethr =  1.00E-02,  avg # of iterations =  3.0

     total cpu time spent up to now is       11.7 secs

     total energy              =    -709.57696378 Ry
     Harris-Foulkes estimate   =    -719.55470086 Ry
     estimated scf accuracy    <      11.36802654 Ry

     iteration #  3     ecut=    47.00 Ry     beta= 0.40
     Davidson diagonalization with overlap
     ethr =  1.00E-02,  avg # of iterations =  9.9

     negative rho (up, down):  8.834E-02 0.000E+00

     total cpu time spent up to now is       17.3 secs

     total energy              =    -712.49498527 Ry
     Harris-Foulkes estimate   =    -713.25297361 Ry
     estimated scf accuracy    <       1.26575589 Ry

     iteration #  4     ecut=    47.00 Ry     beta= 0.40
     Davidson diagonalization with overlap
     ethr =  1.00E-02,  avg # of iterations =  2.9

     negative rho (up, down):  1.720E-01 0.000E+00

     total cpu time spent up to now is       19.8 secs

     total energy              =    -712.71448439 Ry
     Harris-Foulkes estimate   =    -712.91265289 Ry
     estimated scf accuracy    <       0.29656861 Ry

     iteration #  5     ecut=    47.00 Ry     beta= 0.40
     Davidson diagonalization with overlap
     ethr =  3.30E-03,  avg # of iterations =  5.3

     negative rho (up, down):  2.290E-01 0.000E+00

     total cpu time spent up to now is       23.1 secs

     total energy              =    -712.73368388 Ry
     Harris-Foulkes estimate   =    -712.85687344 Ry
     estimated scf accuracy    <       0.19931253 Ry

     iteration #  6     ecut=    47.00 Ry     beta= 0.40
     Davidson diagonalization with overlap
     ethr =  2.21E-03,  avg # of iterations =  2.0

     negative rho (up, down):  2.279E-01 0.000E+00

     total cpu time spent up to now is       25.4 secs

     total energy              =    -712.77224777 Ry
     Harris-Foulkes estimate   =    -712.77225579 Ry
     estimated scf accuracy    <       0.00003231 Ry

     iteration #  7     ecut=    47.00 Ry     beta= 0.40
     Davidson diagonalization with overlap
     ethr =  3.59E-07,  avg # of iterations = 13.0

     negative rho (up, down):  2.259E-01 0.000E+00

     total cpu time spent up to now is       32.0 secs

     total energy              =    -712.77373469 Ry
     Harris-Foulkes estimate   =    -712.77377409 Ry
     estimated scf accuracy    <       0.00004946 Ry

     iteration #  8     ecut=    47.00 Ry     beta= 0.40
     Davidson diagonalization with overlap
     ethr =  3.59E-07,  avg # of iterations =  2.0

     negative rho (up, down):  2.274E-01 0.000E+00

     total cpu time spent up to now is       34.4 secs

     total energy              =    -712.77374811 Ry
     Harris-Foulkes estimate   =    -712.77374873 Ry
     estimated scf accuracy    <       0.00000824 Ry

     iteration #  9     ecut=    47.00 Ry     beta= 0.40
     Davidson diagonalization with overlap
     ethr =  9.15E-08,  avg # of iterations =  1.0

     negative rho (up, down):  2.272E-01 0.000E+00

     total cpu time spent up to now is       36.4 secs

     total energy              =    -712.77374625 Ry
     Harris-Foulkes estimate   =    -712.77374844 Ry
     estimated scf accuracy    <       0.00000231 Ry

     iteration # 10     ecut=    47.00 Ry     beta= 0.40
     Davidson diagonalization with overlap
     ethr =  2.56E-08,  avg # of iterations =  2.0

     negative rho (up, down):  2.272E-01 0.000E+00

     total cpu time spent up to now is       38.7 secs

     total energy              =    -712.77374633 Ry
     Harris-Foulkes estimate   =    -712.77374653 Ry
     estimated scf accuracy    <       0.00000032 Ry

     iteration # 11     ecut=    47.00 Ry     beta= 0.40
     Davidson diagonalization with overlap
     ethr =  3.59E-09,  avg # of iterations =  1.4

     negative rho (up, down):  2.271E-01 0.000E+00

     total cpu time spent up to now is       40.7 secs

     total energy              =    -712.77374627 Ry
     Harris-Foulkes estimate   =    -712.77374636 Ry
     estimated scf accuracy    <       0.00000012 Ry

     iteration # 12     ecut=    47.00 Ry     beta= 0.40
     Davidson diagonalization with overlap
     ethr =  1.34E-09,  avg # of iterations =  2.2

     negative rho (up, down):  2.271E-01 0.000E+00

     total cpu time spent up to now is       43.2 secs

     total energy              =    -712.77374631 Ry
     Harris-Foulkes estimate   =    -712.77374630 Ry
     estimated scf accuracy    <          6.6E-09 Ry

     iteration # 13     ecut=    47.00 Ry     beta= 0.40
     Davidson diagonalization with overlap
     ethr =  7.33E-11,  avg # of iterations =  3.6

     negative rho (up, down):  2.271E-01 0.000E+00

     total cpu time spent up to now is       46.2 secs

     End of self-consistent calculation

     Number of k-points >= 100: set verbosity='high' to print the bands.

     the Fermi energy is  -323.8326 ev

!    total energy              =    -712.77374632 Ry
     Harris-Foulkes estimate   =    -712.77374631 Ry
     estimated scf accuracy    <          3.5E-10 Ry

     total all-electron energy =    -16167.859522 Ry

     The total energy is the sum of the following terms:

     one-electron contribution =    -316.85126251 Ry
     hartree contribution      =      54.81504812 Ry
     xc contribution           =     -28.95660557 Ry
     ewald contribution        =     -36.56760685 Ry
     one-center paw contrib.   =    -385.20466678 Ry
     smearing contrib. (-TS)   =      -0.00865272 Ry

     convergence has been achieved in  13 iterations

     negative rho (up, down):  2.271E-01 0.000E+00

     Forces acting on atoms (cartesian axes, Ry/au):

     atom    1 type  1   force =     0.00000000    0.00000000    0.00000000
     atom    2 type  2   force =    -0.00000000    0.00000000    0.00000000
     atom    3 type  3   force =     0.00000000   -0.00000000    0.00000000

     Total force =     0.000000     Total SCF correction =     0.000000


     Computing stress (Cartesian axis) and pressure


     negative rho (up, down):  2.271E-01 0.000E+00
          total   stress  (Ry/bohr**3)                   (kbar)     P=********
  -0.14362080  -0.00000000  -0.00000000     -21127.35     -0.00     -0.00
   0.00000000  -0.14362080   0.00000000          0.00 -21127.35      0.00
  -0.00000000   0.00000000  -0.14362080         -0.00      0.00 -21127.35


     Writing output data file NNaCs.save/

     init_run     :      1.42s CPU      1.59s WALL (       1 calls)
     electrons    :     40.03s CPU     42.79s WALL (       1 calls)
     forces       :      0.38s CPU      0.40s WALL (       1 calls)
     stress       :      0.98s CPU      1.00s WALL (       1 calls)

     Called by init_run:
     wfcinit      :      1.01s CPU      1.08s WALL (       1 calls)
     potinit      :      0.10s CPU      0.15s WALL (       1 calls)
     hinit0       :      0.26s CPU      0.30s WALL (       1 calls)

     Called by electrons:
     c_bands      :     34.41s CPU     36.06s WALL (      13 calls)
     sum_band     :      4.32s CPU      4.57s WALL (      13 calls)
     v_of_rho     :      0.13s CPU      0.15s WALL (      14 calls)
     newd         :      0.55s CPU      0.57s WALL (      14 calls)
     PAW_pot      :      0.67s CPU      1.54s WALL (      14 calls)
     mix_rho      :      0.04s CPU      0.05s WALL (      13 calls)

     Called by c_bands:
     init_us_2    :      1.28s CPU      1.34s WALL (    3190 calls)
     cegterg      :     32.59s CPU     34.17s WALL (    1430 calls)

     Called by sum_band:
     sum_band:bec :      0.03s CPU      0.03s WALL (    1430 calls)
     addusdens    :      0.48s CPU      0.51s WALL (      13 calls)

     Called by *egterg:
     h_psi        :     23.76s CPU     24.95s WALL (    8200 calls)
     s_psi        :      1.87s CPU      1.96s WALL (    8200 calls)
     g_psi        :      0.11s CPU      0.12s WALL (    6660 calls)
     cdiaghg      :      1.65s CPU      1.72s WALL (    8090 calls)

     Called by h_psi:
     h_psi:pot    :     23.33s CPU     24.49s WALL (    8200 calls)
     h_psi:calbec :      2.81s CPU      2.97s WALL (    8200 calls)
     vloc_psi     :     18.40s CPU     19.28s WALL (    8200 calls)
     add_vuspsi   :      2.08s CPU      2.21s WALL (    8200 calls)

     General routines
     calbec       :      3.61s CPU      3.81s WALL (   10180 calls)
     fft          :      0.06s CPU      0.07s WALL (     180 calls)
     ffts         :      0.00s CPU      0.00s WALL (      13 calls)
     fftw         :     18.04s CPU     18.94s WALL (  103224 calls)

     Parallel routines
     fft_scatt_xy :      2.29s CPU      2.41s WALL (  103417 calls)
     fft_scatt_yz :      4.22s CPU      4.45s WALL (  103417 calls)

     PWSCF        :    44.56s CPU        47.69s WALL


   This run was terminated on:  13:13:24  23Oct2018            

=------------------------------------------------------------------------------=
   JOB DONE.
=------------------------------------------------------------------------------=
