
     Program PWSCF v.6.3MaX starts on 23Oct2018 at 17:47:55 

     This program is part of the open-source Quantum ESPRESSO suite
     for quantum simulation of materials; please cite
         "P. Giannozzi et al., J. Phys.:Condens. Matter 21 395502 (2009);
         "P. Giannozzi et al., J. Phys.:Condens. Matter 29 465901 (2017);
          URL http://www.quantum-espresso.org", 
     in publications or presentations arising from this work. More details at
     http://www.quantum-espresso.org/quote

     Parallel version (MPI), running on     8 processors

     MPI processes distributed on     1 nodes
     R & G space division:  proc/nbgrp/npool/nimage =       8
     Waiting for input...
     Reading input from standard input
Warning: card &CELL ignored
Warning: card                CELL_DYNAMICS = 'BFGS' , ignored
Warning: card / ignored

     Current dimensions of program PWSCF are:
     Max number of different atomic species (ntypx) = 10
     Max number of k-points (npk) =  40000
     Max angular momentum in pseudopotentials (lmaxx) =  3
     Message from routine iosys:
     minimal I/O required, wf_collect reset to FALSE
               file N.pbe-n-kjpaw_psl.1.0.0.UPF: wavefunction(s)  2S renormalized
               file Na.pbe-spnl-kjpaw_psl.1.0.0.UPF: wavefunction(s)  2P renormalized

     Subspace diagonalization in iterative solution of the eigenvalue problem:
     a serial algorithm will be used


     Parallelization info
     --------------------
     sticks:   dense  smooth     PW     G-vecs:    dense   smooth      PW
     Min         137     137     42                 3005     3005     501
     Max         138     138     43                 3006     3006     503
     Sum        1099    1099    337                24045    24045    4015



     bravais-lattice index     =            2
     lattice parameter (alat)  =      10.0000  a.u.
     unit-cell volume          =     250.0000 (a.u.)^3
     number of atoms/cell      =            3
     number of atomic types    =            3
     number of electrons       =         9.00
     number of Kohn-Sham states=            9
     kinetic-energy cutoff     =      80.0000  Ry
     charge density cutoff     =     320.0000  Ry
     convergence threshold     =      1.0E-09
     mixing beta               =       0.4000
     number of iterations used =            8  plain     mixing
     Exchange-correlation      = SLA PW PBX PBC ( 1  4  3  4 0 0)

     celldm(1)=  10.000000  celldm(2)=   0.000000  celldm(3)=   0.000000
     celldm(4)=   0.000000  celldm(5)=   0.000000  celldm(6)=   0.000000

     crystal axes: (cart. coord. in units of alat)
               a(1) = (  -0.500000   0.000000   0.500000 )  
               a(2) = (   0.000000   0.500000   0.500000 )  
               a(3) = (  -0.500000   0.500000   0.000000 )  

     reciprocal axes: (cart. coord. in units 2 pi/alat)
               b(1) = ( -1.000000 -1.000000  1.000000 )  
               b(2) = (  1.000000  1.000000  1.000000 )  
               b(3) = ( -1.000000  1.000000 -1.000000 )  


     PseudoPot. # 1 for N  read from file:
     ./ps/N.pbe-n-kjpaw_psl.1.0.0.UPF
     MD5 check sum: 200139db3989ad6e773ddd42f12fc3a8
     Pseudo is Projector augmented-wave + core cor, Zval =  5.0
     Generated using "atomic" code by A. Dal Corso v.6.3
     Shape of augmentation charge: PSQ
     Using radial grid of 1085 points,  4 beta functions with: 
                l(1) =   0
                l(2) =   0
                l(3) =   1
                l(4) =   1
     Q(r) pseudized with 0 coefficients 


     PseudoPot. # 2 for Na read from file:
     ./ps/Na.pbe-spnl-kjpaw_psl.1.0.0.UPF
     MD5 check sum: 09e782c158f17eb2240230c4112357ee
     Pseudo is Projector augmented-wave + core cor, Zval =  9.0
     Generated using "atomic" code by A. Dal Corso v.6.3
     Shape of augmentation charge: PSQ
     Using radial grid of 1121 points,  4 beta functions with: 
                l(1) =   0
                l(2) =   0
                l(3) =   1
                l(4) =   1
     Q(r) pseudized with 0 coefficients 


     PseudoPot. # 3 for Cs read from file:
     ./ps/Cs.pbe-spnl-kjpaw_psl.1.0.0.UPF
     MD5 check sum: f98336d4a4407e24c1ab1e3bc36275e8
     Pseudo is Projector augmented-wave + core cor, Zval = -5.0
     Generated using "atomic" code by A. Dal Corso v.6.2.2
     Shape of augmentation charge: PSQ
     Using radial grid of 1251 points,  6 beta functions with: 
                l(1) =   0
                l(2) =   0
                l(3) =   1
                l(4) =   1
                l(5) =   2
                l(6) =   2
     Q(r) pseudized with 0 coefficients 


     atomic species   valence    mass     pseudopotential
        N              5.00    14.00670     N ( 1.00)
        Na             9.00    22.98977     Na( 1.00)
        Cs            -5.00   132.90545     Cs( 1.00)

     24 Sym. Ops. (no inversion) found



   Cartesian axes

     site n.     atom                  positions (alat units)
         1           N   tau(   1) = (   0.0000000   0.0000000   0.0000000  )
         2           Na  tau(   2) = (  -0.2500000   0.2500000   0.2500000  )
         3           Cs  tau(   3) = (  -0.7500000   0.7500000   0.7500000  )

     number of k points=   110  Methfessel-Paxton smearing, width (Ry)=  0.0200

     Number of k-points >= 100: set verbosity='high' to print them.

     Dense  grid:    24045 G-vectors     FFT dimensions: (  45,  45,  45)

     Estimated max dynamical RAM per process >      24.28 MB

     Estimated total dynamical RAM >     194.25 MB

     Check: negative/imaginary core charge=   -0.000002    0.000000

     Initial potential from superposition of free atoms

     starting charge   22.95298, renormalised to    9.00000
     Starting wfcs are   14 randomized atomic wfcs
     Checking if some PAW data can be deallocated... 

     total cpu time spent up to now is        4.7 secs

     Self-consistent Calculation

     iteration #  1     ecut=    80.00 Ry     beta= 0.40
     Davidson diagonalization with overlap
     ethr =  1.00E-02,  avg # of iterations =  6.6

     total cpu time spent up to now is       10.3 secs

     total energy              =   -1090.36228670 Ry
     Harris-Foulkes estimate   =   -1093.47263102 Ry
     estimated scf accuracy    <       6.97612186 Ry

     iteration #  2     ecut=    80.00 Ry     beta= 0.40
     Davidson diagonalization with overlap
     ethr =  1.00E-02,  avg # of iterations =  2.0

     total cpu time spent up to now is       13.5 secs

     total energy              =   -1089.49325035 Ry
     Harris-Foulkes estimate   =   -1090.60251886 Ry
     estimated scf accuracy    <       1.60375138 Ry

     iteration #  3     ecut=    80.00 Ry     beta= 0.40
     Davidson diagonalization with overlap
     ethr =  1.00E-02,  avg # of iterations =  1.4

     total cpu time spent up to now is       16.3 secs

     total energy              =   -1094.26119040 Ry
     Harris-Foulkes estimate   =   -1093.29055571 Ry
     estimated scf accuracy    <      37.49497321 Ry

     iteration #  4     ecut=    80.00 Ry     beta= 0.40
     Davidson diagonalization with overlap
     ethr =  1.00E-02,  avg # of iterations =  1.0

     total cpu time spent up to now is       19.4 secs

     total energy              =   -1084.60989898 Ry
     Harris-Foulkes estimate   =   -1094.33940550 Ry
     estimated scf accuracy    <      46.03522349 Ry

     iteration #  5     ecut=    80.00 Ry     beta= 0.40
     Davidson diagonalization with overlap
     ethr =  1.00E-02,  avg # of iterations =  1.9

     negative rho (up, down):  2.183E-05 0.000E+00

     total cpu time spent up to now is       23.3 secs

     total energy              =   -1090.98356266 Ry
     Harris-Foulkes estimate   =   -1090.43520674 Ry
     estimated scf accuracy    <       1.23547229 Ry

     iteration #  6     ecut=    80.00 Ry     beta= 0.40
     Davidson diagonalization with overlap
     ethr =  1.00E-02,  avg # of iterations =  1.0

     negative rho (up, down):  1.954E-04 0.000E+00

     total cpu time spent up to now is       26.8 secs

     total energy              =   -1091.01802509 Ry
     Harris-Foulkes estimate   =   -1090.99550507 Ry
     estimated scf accuracy    <       1.90959563 Ry

     iteration #  7     ecut=    80.00 Ry     beta= 0.40
     Davidson diagonalization with overlap
     ethr =  1.00E-02,  avg # of iterations =  1.0

     negative rho (up, down):  1.559E-04 0.000E+00

     total cpu time spent up to now is       30.1 secs

     total energy              =   -1090.84723158 Ry
     Harris-Foulkes estimate   =   -1091.02139196 Ry
     estimated scf accuracy    <       1.92760668 Ry

     iteration #  8     ecut=    80.00 Ry     beta= 0.40
     Davidson diagonalization with overlap
     ethr =  1.00E-02,  avg # of iterations =  1.0

     negative rho (up, down):  1.739E-04 0.000E+00

     total cpu time spent up to now is       33.1 secs

     total energy              =   -1090.34676996 Ry
     Harris-Foulkes estimate   =   -1090.84814662 Ry
     estimated scf accuracy    <       1.72630419 Ry

     iteration #  9     ecut=    80.00 Ry     beta= 0.40
     Davidson diagonalization with overlap
     ethr =  1.00E-02,  avg # of iterations =  1.0

     negative rho (up, down):  3.875E-04 0.000E+00

     total cpu time spent up to now is       36.2 secs

     total energy              =   -1090.49822374 Ry
     Harris-Foulkes estimate   =   -1090.35340310 Ry
     estimated scf accuracy    <       1.11152462 Ry

     iteration # 10     ecut=    80.00 Ry     beta= 0.40
     Davidson diagonalization with overlap
     ethr =  1.00E-02,  avg # of iterations =  1.0

     negative rho (up, down):  2.615E-04 0.000E+00

     total cpu time spent up to now is       39.2 secs

     total energy              =   -1090.02885724 Ry
     Harris-Foulkes estimate   =   -1090.49980966 Ry
     estimated scf accuracy    <       1.28964530 Ry

     iteration # 11     ecut=    80.00 Ry     beta= 0.40
     Davidson diagonalization with overlap
     ethr =  1.00E-02,  avg # of iterations =  1.0

     negative rho (up, down):  1.885E-04 0.000E+00

     total cpu time spent up to now is       42.1 secs

     total energy              =   -1090.24462758 Ry
     Harris-Foulkes estimate   =   -1090.03745881 Ry
     estimated scf accuracy    <       0.68899885 Ry

     iteration # 12     ecut=    80.00 Ry     beta= 0.40
     Davidson diagonalization with overlap
     ethr =  7.66E-03,  avg # of iterations =  1.0

     negative rho (up, down):  1.928E-04 0.000E+00

     total cpu time spent up to now is       45.0 secs

     total energy              =   -1089.96475146 Ry
     Harris-Foulkes estimate   =   -1090.24865228 Ry
     estimated scf accuracy    <       0.96720251 Ry

     iteration # 13     ecut=    80.00 Ry     beta= 0.40
     Davidson diagonalization with overlap
     ethr =  7.66E-03,  avg # of iterations =  1.0

     negative rho (up, down):  2.199E-04 0.000E+00

     total cpu time spent up to now is       47.9 secs

     total energy              =   -1089.48548754 Ry
     Harris-Foulkes estimate   =   -1089.97123545 Ry
     estimated scf accuracy    <       0.56629973 Ry

     iteration # 14     ecut=    80.00 Ry     beta= 0.40
     Davidson diagonalization with overlap
     ethr =  6.29E-03,  avg # of iterations =  2.0

     negative rho (up, down):  2.314E-04 0.000E+00

     total cpu time spent up to now is       51.2 secs

     total energy              =   -1086.12054791 Ry
     Harris-Foulkes estimate   =   -1094.73066826 Ry
     estimated scf accuracy    <      46.84071403 Ry

     iteration # 15     ecut=    80.00 Ry     beta= 0.40
     Davidson diagonalization with overlap
     ethr =  6.29E-03,  avg # of iterations =  2.0

     negative rho (up, down):  2.241E-04 0.000E+00

     total cpu time spent up to now is       54.2 secs

     total energy              =   -1090.23706807 Ry
     Harris-Foulkes estimate   =   -1090.16331464 Ry
     estimated scf accuracy    <       0.83538262 Ry

     iteration # 16     ecut=    80.00 Ry     beta= 0.40
     Davidson diagonalization with overlap
     ethr =  6.29E-03,  avg # of iterations =  1.0

     negative rho (up, down):  2.404E-04 0.000E+00

     total cpu time spent up to now is       56.9 secs

     total energy              =   -1090.30307346 Ry
     Harris-Foulkes estimate   =   -1090.23997823 Ry
     estimated scf accuracy    <       0.93605625 Ry

     iteration # 17     ecut=    80.00 Ry     beta= 0.40
     Davidson diagonalization with overlap
     ethr =  6.29E-03,  avg # of iterations =  1.0

     negative rho (up, down):  2.536E-04 0.000E+00

     total cpu time spent up to now is       59.8 secs

     total energy              =   -1090.20191293 Ry
     Harris-Foulkes estimate   =   -1090.30429492 Ry
     estimated scf accuracy    <       1.02469351 Ry

     iteration # 18     ecut=    80.00 Ry     beta= 0.40
     Davidson diagonalization with overlap
     ethr =  6.29E-03,  avg # of iterations =  1.0

     negative rho (up, down):  2.661E-04 0.000E+00

     total cpu time spent up to now is       62.7 secs

     total energy              =   -1090.21436935 Ry
     Harris-Foulkes estimate   =   -1090.20239811 Ry
     estimated scf accuracy    <       0.89817107 Ry

     iteration # 19     ecut=    80.00 Ry     beta= 0.40
     Davidson diagonalization with overlap
     ethr =  6.29E-03,  avg # of iterations =  1.0

     negative rho (up, down):  2.102E-04 0.000E+00

     total cpu time spent up to now is       65.6 secs

     total energy              =   -1090.08520419 Ry
     Harris-Foulkes estimate   =   -1090.21443847 Ry
     estimated scf accuracy    <       0.91481782 Ry

     iteration # 20     ecut=    80.00 Ry     beta= 0.40
     Davidson diagonalization with overlap
     ethr =  6.29E-03,  avg # of iterations =  1.0

     negative rho (up, down):  2.186E-04 0.000E+00

     total cpu time spent up to now is       68.4 secs

     total energy              =   -1090.17462105 Ry
     Harris-Foulkes estimate   =   -1090.08621817 Ry
     estimated scf accuracy    <       0.74535962 Ry

     iteration # 21     ecut=    80.00 Ry     beta= 0.40
     Davidson diagonalization with overlap
     ethr =  6.29E-03,  avg # of iterations =  1.0

     negative rho (up, down):  2.323E-04 0.000E+00

     total cpu time spent up to now is       71.2 secs

     total energy              =   -1090.16905671 Ry
     Harris-Foulkes estimate   =   -1090.17518607 Ry
     estimated scf accuracy    <       0.86315867 Ry

     iteration # 22     ecut=    80.00 Ry     beta= 0.40
     Davidson diagonalization with overlap
     ethr =  6.29E-03,  avg # of iterations =  1.0

     negative rho (up, down):  2.425E-04 0.000E+00

     total cpu time spent up to now is       74.0 secs

     total energy              =   -1090.18837113 Ry
     Harris-Foulkes estimate   =   -1090.16906613 Ry
     estimated scf accuracy    <       0.85484802 Ry

     iteration # 23     ecut=    80.00 Ry     beta= 0.40
     Davidson diagonalization with overlap
     ethr =  6.29E-03,  avg # of iterations =  1.0

     negative rho (up, down):  2.872E-04 0.000E+00

     total cpu time spent up to now is       77.0 secs

     total energy              =   -1089.42229444 Ry
     Harris-Foulkes estimate   =   -1090.18839032 Ry
     estimated scf accuracy    <       0.87919567 Ry

     iteration # 24     ecut=    80.00 Ry     beta= 0.40
     Davidson diagonalization with overlap
     ethr =  6.29E-03,  avg # of iterations =  3.0

     negative rho (up, down):  2.396E-04 0.000E+00

     total cpu time spent up to now is       80.5 secs

     total energy              =   -1088.02663075 Ry
     Harris-Foulkes estimate   =   -1095.41277152 Ry
     estimated scf accuracy    <      47.84547106 Ry

     iteration # 25     ecut=    80.00 Ry     beta= 0.40
     Davidson diagonalization with overlap
     ethr =  6.29E-03,  avg # of iterations =  2.0

     negative rho (up, down):  2.442E-04 0.000E+00

     total cpu time spent up to now is       83.6 secs

     total energy              =   -1089.91527117 Ry
     Harris-Foulkes estimate   =   -1089.91485830 Ry
     estimated scf accuracy    <       0.40208489 Ry

     iteration # 26     ecut=    80.00 Ry     beta= 0.40
     Davidson diagonalization with overlap
     ethr =  4.47E-03,  avg # of iterations =  1.0

     negative rho (up, down):  2.329E-04 0.000E+00

     total cpu time spent up to now is       86.5 secs

     total energy              =   -1089.86272519 Ry
     Harris-Foulkes estimate   =   -1089.91633686 Ry
     estimated scf accuracy    <       0.40529106 Ry

     iteration # 27     ecut=    80.00 Ry     beta= 0.40
     Davidson diagonalization with overlap
     ethr =  4.47E-03,  avg # of iterations =  1.0

     negative rho (up, down):  2.042E-04 0.000E+00

     total cpu time spent up to now is       89.5 secs

     total energy              =   -1089.97351254 Ry
     Harris-Foulkes estimate   =   -1089.87377360 Ry
     estimated scf accuracy    <       0.03596580 Ry

     iteration # 28     ecut=    80.00 Ry     beta= 0.40
     Davidson diagonalization with overlap
     ethr =  4.00E-04,  avg # of iterations =  2.0

     negative rho (up, down):  1.745E-04 0.000E+00

     total cpu time spent up to now is       92.7 secs

     total energy              =   -1090.10293255 Ry
     Harris-Foulkes estimate   =   -1090.12191394 Ry
     estimated scf accuracy    <       0.78938636 Ry

     iteration # 29     ecut=    80.00 Ry     beta= 0.40
     Davidson diagonalization with overlap
     ethr =  4.00E-04,  avg # of iterations =  1.0

     negative rho (up, down):  2.047E-04 0.000E+00

     total cpu time spent up to now is       95.6 secs

     total energy              =   -1090.03231850 Ry
     Harris-Foulkes estimate   =   -1090.10320010 Ry
     estimated scf accuracy    <       0.76398147 Ry

     iteration # 30     ecut=    80.00 Ry     beta= 0.40
     Davidson diagonalization with overlap
     ethr =  4.00E-04,  avg # of iterations =  1.0

     negative rho (up, down):  2.114E-04 0.000E+00

     total cpu time spent up to now is       98.4 secs

     total energy              =   -1090.00684007 Ry
     Harris-Foulkes estimate   =   -1090.03286521 Ry
     estimated scf accuracy    <       0.66339240 Ry

     iteration # 31     ecut=    80.00 Ry     beta= 0.40
     Davidson diagonalization with overlap
     ethr =  4.00E-04,  avg # of iterations =  1.0

     negative rho (up, down):  2.077E-04 0.000E+00

     total cpu time spent up to now is      101.3 secs

     total energy              =   -1090.05607180 Ry
     Harris-Foulkes estimate   =   -1090.00702360 Ry
     estimated scf accuracy    <       0.62020864 Ry

     iteration # 32     ecut=    80.00 Ry     beta= 0.40
     Davidson diagonalization with overlap
     ethr =  4.00E-04,  avg # of iterations =  1.0

     negative rho (up, down):  2.284E-04 0.000E+00

     total cpu time spent up to now is      104.2 secs

     total energy              =   -1089.75463543 Ry
     Harris-Foulkes estimate   =   -1090.05650640 Ry
     estimated scf accuracy    <       0.69640351 Ry

     iteration # 33     ecut=    80.00 Ry     beta= 0.40
     Davidson diagonalization with overlap
     ethr =  4.00E-04,  avg # of iterations =  3.0

     negative rho (up, down):  2.074E-04 0.000E+00

     total cpu time spent up to now is      107.7 secs

     total energy              =   -1089.35970016 Ry
     Harris-Foulkes estimate   =   -1090.26616836 Ry
     estimated scf accuracy    <      23.08768625 Ry

     iteration # 34     ecut=    80.00 Ry     beta= 0.40
     Davidson diagonalization with overlap
     ethr =  4.00E-04,  avg # of iterations =  1.0

     negative rho (up, down):  2.294E-04 0.000E+00

     total cpu time spent up to now is      110.7 secs

     total energy              =   -1089.82351621 Ry
     Harris-Foulkes estimate   =   -1089.88978965 Ry
     estimated scf accuracy    <       0.26563138 Ry

     iteration # 35     ecut=    80.00 Ry     beta= 0.40
     Davidson diagonalization with overlap
     ethr =  4.00E-04,  avg # of iterations =  1.0

     negative rho (up, down):  2.335E-04 0.000E+00

     total cpu time spent up to now is      113.6 secs

     total energy              =   -1089.78695878 Ry
     Harris-Foulkes estimate   =   -1090.03515056 Ry
     estimated scf accuracy    <      15.56691540 Ry

     iteration # 36     ecut=    80.00 Ry     beta= 0.40
     Davidson diagonalization with overlap
     ethr =  4.00E-04,  avg # of iterations =  1.0

     negative rho (up, down):  2.386E-04 0.000E+00

     total cpu time spent up to now is      116.5 secs

     total energy              =   -1089.97257303 Ry
     Harris-Foulkes estimate   =   -1089.87859965 Ry
     estimated scf accuracy    <       0.47799262 Ry

     iteration # 37     ecut=    80.00 Ry     beta= 0.40
     Davidson diagonalization with overlap
     ethr =  4.00E-04,  avg # of iterations =  1.0

     negative rho (up, down):  2.245E-04 0.000E+00

     total cpu time spent up to now is      119.4 secs

     total energy              =   -1089.60716414 Ry
     Harris-Foulkes estimate   =   -1090.33792857 Ry
     estimated scf accuracy    <      24.01515784 Ry

     iteration # 38     ecut=    80.00 Ry     beta= 0.40
     Davidson diagonalization with overlap
     ethr =  4.00E-04,  avg # of iterations =  1.0

     negative rho (up, down):  2.384E-04 0.000E+00

     total cpu time spent up to now is      122.2 secs

     total energy              =   -1089.88881811 Ry
     Harris-Foulkes estimate   =   -1089.87242036 Ry
     estimated scf accuracy    <       0.00102149 Ry

     iteration # 39     ecut=    80.00 Ry     beta= 0.40
     Davidson diagonalization with overlap
     ethr =  1.13E-05,  avg # of iterations =  3.0

     negative rho (up, down):  2.148E-04 0.000E+00

     total cpu time spent up to now is      126.4 secs

     total energy              =   -1089.14390724 Ry
     Harris-Foulkes estimate   =   -1090.63211969 Ry
     estimated scf accuracy    <      25.93240486 Ry

     iteration # 40     ecut=    80.00 Ry     beta= 0.40
     Davidson diagonalization with overlap
     ethr =  1.13E-05,  avg # of iterations =  4.0

     negative rho (up, down):  2.116E-04 0.000E+00

     total cpu time spent up to now is      131.3 secs

     total energy              =   -1089.93392343 Ry
     Harris-Foulkes estimate   =   -1089.90883957 Ry
     estimated scf accuracy    <       0.37899692 Ry

     iteration # 41     ecut=    80.00 Ry     beta= 0.40
     Davidson diagonalization with overlap
     ethr =  1.13E-05,  avg # of iterations =  1.0

     negative rho (up, down):  2.189E-04 0.000E+00

     total cpu time spent up to now is      134.1 secs

     total energy              =   -1089.86187906 Ry
     Harris-Foulkes estimate   =   -1089.93499623 Ry
     estimated scf accuracy    <       0.46982684 Ry

     iteration # 42     ecut=    80.00 Ry     beta= 0.40
     Davidson diagonalization with overlap
     ethr =  1.13E-05,  avg # of iterations =  3.0

     negative rho (up, down):  2.168E-04 0.000E+00

     total cpu time spent up to now is      138.1 secs

     total energy              =   -1089.88872585 Ry
     Harris-Foulkes estimate   =   -1089.87458110 Ry
     estimated scf accuracy    <       0.05484082 Ry

     iteration # 43     ecut=    80.00 Ry     beta= 0.40
     Davidson diagonalization with overlap
     ethr =  1.13E-05,  avg # of iterations =  2.0

     negative rho (up, down):  2.140E-04 0.000E+00

     total cpu time spent up to now is      141.4 secs

     total energy              =   -1089.91998456 Ry
     Harris-Foulkes estimate   =   -1089.89981129 Ry
     estimated scf accuracy    <       0.33165663 Ry

     iteration # 44     ecut=    80.00 Ry     beta= 0.40
     Davidson diagonalization with overlap
     ethr =  1.13E-05,  avg # of iterations =  1.0

     negative rho (up, down):  2.148E-04 0.000E+00

     total cpu time spent up to now is      144.3 secs

     total energy              =   -1089.89904405 Ry
     Harris-Foulkes estimate   =   -1089.92110850 Ry
     estimated scf accuracy    <       0.42598019 Ry

     iteration # 45     ecut=    80.00 Ry     beta= 0.40
     Davidson diagonalization with overlap
     ethr =  1.13E-05,  avg # of iterations =  1.0

     negative rho (up, down):  2.225E-04 0.000E+00

     total cpu time spent up to now is      147.2 secs

     total energy              =   -1089.84178159 Ry
     Harris-Foulkes estimate   =   -1089.89988643 Ry
     estimated scf accuracy    <       0.33389340 Ry

     iteration # 46     ecut=    80.00 Ry     beta= 0.40
     Davidson diagonalization with overlap
     ethr =  1.13E-05,  avg # of iterations =  3.0

     negative rho (up, down):  2.200E-04 0.000E+00

     total cpu time spent up to now is      151.1 secs

     total energy              =   -1089.83368683 Ry
     Harris-Foulkes estimate   =   -1089.89163105 Ry
     estimated scf accuracy    <       2.05169199 Ry

     iteration # 47     ecut=    80.00 Ry     beta= 0.40
     Davidson diagonalization with overlap
     ethr =  1.13E-05,  avg # of iterations =  1.4

     negative rho (up, down):  2.198E-04 0.000E+00

     total cpu time spent up to now is      154.1 secs

     total energy              =   -1089.87321632 Ry
     Harris-Foulkes estimate   =   -1089.87303064 Ry
     estimated scf accuracy    <       0.01432671 Ry

     iteration # 48     ecut=    80.00 Ry     beta= 0.40
     Davidson diagonalization with overlap
     ethr =  1.13E-05,  avg # of iterations =  1.0

     negative rho (up, down):  1.663E-04 0.000E+00

     total cpu time spent up to now is      156.9 secs

     total energy              =   -1090.23302434 Ry
     Harris-Foulkes estimate   =   -1089.87324228 Ry
     estimated scf accuracy    <       0.02038880 Ry

     iteration # 49     ecut=    80.00 Ry     beta= 0.40
     Davidson diagonalization with overlap
     ethr =  1.13E-05,  avg # of iterations = 14.3

     negative rho (up, down):  1.943E-04 0.000E+00

     total cpu time spent up to now is      167.2 secs

     total energy              =   -1090.05479697 Ry
     Harris-Foulkes estimate   =   -1090.72027877 Ry
     estimated scf accuracy    <       1.56505226 Ry

     iteration # 50     ecut=    80.00 Ry     beta= 0.40
     Davidson diagonalization with overlap
     ethr =  1.13E-05,  avg # of iterations =  7.1

     negative rho (up, down):  2.003E-04 0.000E+00

     total cpu time spent up to now is      174.7 secs

     total energy              =   -1089.89190700 Ry
     Harris-Foulkes estimate   =   -1090.07075689 Ry
     estimated scf accuracy    <       0.71972890 Ry

     iteration # 51     ecut=    80.00 Ry     beta= 0.40
     Davidson diagonalization with overlap
     ethr =  1.13E-05,  avg # of iterations =  4.0

     negative rho (up, down):  2.142E-04 0.000E+00

     total cpu time spent up to now is      179.5 secs

     total energy              =   -1089.71423607 Ry
     Harris-Foulkes estimate   =   -1089.90100586 Ry
     estimated scf accuracy    <       0.34080843 Ry

     iteration # 52     ecut=    80.00 Ry     beta= 0.40
     Davidson diagonalization with overlap
     ethr =  1.13E-05,  avg # of iterations =  4.0

     negative rho (up, down):  2.147E-04 0.000E+00

     total cpu time spent up to now is      185.0 secs

     total energy              =   -1089.47046814 Ry
     Harris-Foulkes estimate   =   -1091.20667150 Ry
     estimated scf accuracy    <      27.40082517 Ry

     iteration # 53     ecut=    80.00 Ry     beta= 0.40
     Davidson diagonalization with overlap
     ethr =  1.13E-05,  avg # of iterations =  4.0

     negative rho (up, down):  2.182E-04 0.000E+00

     total cpu time spent up to now is      190.2 secs

     total energy              =   -1089.83478511 Ry
     Harris-Foulkes estimate   =   -1089.87477992 Ry
     estimated scf accuracy    <       0.06249112 Ry

     iteration # 54     ecut=    80.00 Ry     beta= 0.40
     Davidson diagonalization with overlap
     ethr =  1.13E-05,  avg # of iterations =  3.8

     negative rho (up, down):  2.151E-04 0.000E+00

     total cpu time spent up to now is      194.6 secs

     total energy              =   -1090.38443884 Ry
     Harris-Foulkes estimate   =   -1090.53779862 Ry
     estimated scf accuracy    <      25.51981465 Ry

     iteration # 55     ecut=    80.00 Ry     beta= 0.40
     Davidson diagonalization with overlap
     ethr =  1.13E-05,  avg # of iterations =  1.0

     negative rho (up, down):  2.142E-04 0.000E+00

     total cpu time spent up to now is      197.6 secs

     total energy              =   -1091.14549187 Ry
     Harris-Foulkes estimate   =   -1090.38554604 Ry
     estimated scf accuracy    <      24.52916992 Ry

     iteration # 56     ecut=    80.00 Ry     beta= 0.40
     Davidson diagonalization with overlap
     ethr =  1.13E-05,  avg # of iterations =  3.0

     negative rho (up, down):  2.156E-04 0.000E+00

     total cpu time spent up to now is      201.7 secs

     total energy              =   -1090.30810089 Ry
     Harris-Foulkes estimate   =   -1091.16525973 Ry
     estimated scf accuracy    <      27.31805357 Ry

     iteration # 57     ecut=    80.00 Ry     beta= 0.40
     Davidson diagonalization with overlap
     ethr =  1.13E-05,  avg # of iterations =  3.0

     negative rho (up, down):  2.159E-04 0.000E+00

     total cpu time spent up to now is      205.7 secs

     total energy              =   -1090.60490636 Ry
     Harris-Foulkes estimate   =   -1090.32022241 Ry
     estimated scf accuracy    <      23.86181894 Ry

     iteration # 58     ecut=    80.00 Ry     beta= 0.40
     Davidson diagonalization with overlap
     ethr =  1.13E-05,  avg # of iterations =  2.0

     negative rho (up, down):  2.146E-04 0.000E+00

     total cpu time spent up to now is      209.1 secs

     total energy              =   -1090.58734510 Ry
     Harris-Foulkes estimate   =   -1090.61085909 Ry
     estimated scf accuracy    <      25.85554665 Ry

     iteration # 59     ecut=    80.00 Ry     beta= 0.40
     Davidson diagonalization with overlap
     ethr =  1.13E-05,  avg # of iterations =  1.0

     negative rho (up, down):  2.145E-04 0.000E+00

     total cpu time spent up to now is      212.0 secs

     total energy              =   -1090.35258451 Ry
     Harris-Foulkes estimate   =   -1090.58736371 Ry
     estimated scf accuracy    <      25.75923381 Ry

     iteration # 60     ecut=    80.00 Ry     beta= 0.40
     Davidson diagonalization with overlap
     ethr =  1.13E-05,  avg # of iterations =  2.0

     negative rho (up, down):  2.136E-04 0.000E+00

     total cpu time spent up to now is      215.5 secs

     total energy              =   -1089.85990638 Ry
     Harris-Foulkes estimate   =   -1090.35499912 Ry
     estimated scf accuracy    <      24.24860490 Ry

     iteration # 61     ecut=    80.00 Ry     beta= 0.40
     Davidson diagonalization with overlap
     ethr =  1.13E-05,  avg # of iterations =  3.0

     negative rho (up, down):  2.150E-04 0.000E+00

     total cpu time spent up to now is      219.3 secs

     total energy              =   -1089.96896672 Ry
     Harris-Foulkes estimate   =   -1089.93177990 Ry
     estimated scf accuracy    <       6.80942824 Ry

     iteration # 62     ecut=    80.00 Ry     beta= 0.40
     Davidson diagonalization with overlap
     ethr =  1.13E-05,  avg # of iterations =  1.0

     negative rho (up, down):  2.082E-04 0.000E+00

     total cpu time spent up to now is      222.3 secs

     total energy              =   -1090.41632216 Ry
     Harris-Foulkes estimate   =   -1089.97392120 Ry
     estimated scf accuracy    <      10.83130642 Ry

     iteration # 63     ecut=    80.00 Ry     beta= 0.40
     Davidson diagonalization with overlap
     ethr =  1.13E-05,  avg # of iterations =  3.0

     negative rho (up, down):  2.105E-04 0.000E+00

     total cpu time spent up to now is      226.2 secs

     total energy              =   -1090.64426326 Ry
     Harris-Foulkes estimate   =   -1090.58719227 Ry
     estimated scf accuracy    <      25.75720621 Ry

     iteration # 64     ecut=    80.00 Ry     beta= 0.40
     Davidson diagonalization with overlap
     ethr =  1.13E-05,  avg # of iterations =  1.0

     negative rho (up, down):  2.015E-04 0.000E+00

     total cpu time spent up to now is      229.2 secs

     total energy              =   -1089.91596301 Ry
     Harris-Foulkes estimate   =   -1090.64436692 Ry
     estimated scf accuracy    <      25.98717132 Ry

     iteration # 65     ecut=    80.00 Ry     beta= 0.40
     Davidson diagonalization with overlap
     ethr =  1.13E-05,  avg # of iterations =  3.0

     negative rho (up, down):  2.020E-04 0.000E+00

     total cpu time spent up to now is      233.3 secs

     total energy              =   -1090.05435370 Ry
     Harris-Foulkes estimate   =   -1089.97472427 Ry
     estimated scf accuracy    <      10.97497473 Ry

     iteration # 66     ecut=    80.00 Ry     beta= 0.40
     Davidson diagonalization with overlap
     ethr =  1.13E-05,  avg # of iterations =  1.0

     negative rho (up, down):  2.009E-04 0.000E+00

     total cpu time spent up to now is      236.3 secs

     total energy              =   -1089.78650550 Ry
     Harris-Foulkes estimate   =   -1090.06550601 Ry
     estimated scf accuracy    <      17.36046985 Ry

     iteration # 67     ecut=    80.00 Ry     beta= 0.40
     Davidson diagonalization with overlap
     ethr =  1.13E-05,  avg # of iterations =  2.0

     negative rho (up, down):  2.111E-04 0.000E+00

     total cpu time spent up to now is      239.6 secs

     total energy              =   -1089.88293967 Ry
     Harris-Foulkes estimate   =   -1089.88123021 Ry
     estimated scf accuracy    <       0.77352747 Ry

     iteration # 68     ecut=    80.00 Ry     beta= 0.40
     Davidson diagonalization with overlap
     ethr =  1.13E-05,  avg # of iterations =  1.0

     negative rho (up, down):  2.165E-04 0.000E+00

     total cpu time spent up to now is      242.6 secs

     total energy              =   -1089.88569898 Ry
     Harris-Foulkes estimate   =   -1089.88304788 Ry
     estimated scf accuracy    <       0.96618484 Ry

     iteration # 69     ecut=    80.00 Ry     beta= 0.40
     Davidson diagonalization with overlap
     ethr =  1.13E-05,  avg # of iterations =  1.0

     negative rho (up, down):  2.688E-04 0.000E+00

     total cpu time spent up to now is      245.6 secs

     total energy              =   -1089.91704374 Ry
     Harris-Foulkes estimate   =   -1089.88590457 Ry
     estimated scf accuracy    <       1.30045597 Ry

     iteration # 70     ecut=    80.00 Ry     beta= 0.40
     Davidson diagonalization with overlap
     ethr =  1.13E-05,  avg # of iterations =  1.0

     negative rho (up, down):  2.434E-04 0.000E+00

     total cpu time spent up to now is      248.5 secs

     total energy              =   -1089.97627042 Ry
     Harris-Foulkes estimate   =   -1089.93957381 Ry
     estimated scf accuracy    <       7.50868601 Ry

     iteration # 71     ecut=    80.00 Ry     beta= 0.40
     Davidson diagonalization with overlap
     ethr =  1.13E-05,  avg # of iterations =  1.0

     negative rho (up, down):  2.287E-04 0.000E+00

     total cpu time spent up to now is      251.4 secs

     total energy              =   -1090.06647602 Ry
     Harris-Foulkes estimate   =   -1089.98065072 Ry
     estimated scf accuracy    <      11.36624639 Ry

     iteration # 72     ecut=    80.00 Ry     beta= 0.40
     Davidson diagonalization with overlap
     ethr =  1.13E-05,  avg # of iterations =  1.0

     negative rho (up, down):  2.438E-04 0.000E+00

     total cpu time spent up to now is      254.4 secs

     total energy              =   -1089.95818139 Ry
     Harris-Foulkes estimate   =   -1090.07879586 Ry
     estimated scf accuracy    <      17.94659668 Ry

     iteration # 73     ecut=    80.00 Ry     beta= 0.40
     Davidson diagonalization with overlap
     ethr =  1.13E-05,  avg # of iterations =  1.0

     negative rho (up, down):  3.243E-04 0.000E+00

     total cpu time spent up to now is      257.3 secs

     total energy              =   -1089.84162945 Ry
     Harris-Foulkes estimate   =   -1089.97073867 Ry
     estimated scf accuracy    <      10.50511875 Ry

     iteration # 74     ecut=    80.00 Ry     beta= 0.40
     Davidson diagonalization with overlap
     ethr =  1.13E-05,  avg # of iterations =  2.0

     negative rho (up, down):  2.667E-04 0.000E+00

     total cpu time spent up to now is      261.0 secs

     total energy              =   -1089.89002447 Ry
     Harris-Foulkes estimate   =   -1089.88414715 Ry
     estimated scf accuracy    <       0.97775289 Ry

     iteration # 75     ecut=    80.00 Ry     beta= 0.40
     Davidson diagonalization with overlap
     ethr =  1.13E-05,  avg # of iterations =  1.0

     negative rho (up, down):  2.400E-04 0.000E+00

     total cpu time spent up to now is      263.9 secs

     total energy              =   -1089.90213068 Ry
     Harris-Foulkes estimate   =   -1089.89138429 Ry
     estimated scf accuracy    <       1.96077893 Ry

     iteration # 76     ecut=    80.00 Ry     beta= 0.40
     Davidson diagonalization with overlap
     ethr =  1.13E-05,  avg # of iterations =  1.0

     negative rho (up, down):  2.586E-04 0.000E+00

     total cpu time spent up to now is      266.8 secs

     total energy              =   -1089.90328535 Ry
     Harris-Foulkes estimate   =   -1089.90405167 Ry
     estimated scf accuracy    <       3.58502213 Ry

     iteration # 77     ecut=    80.00 Ry     beta= 0.40
     Davidson diagonalization with overlap
     ethr =  1.13E-05,  avg # of iterations =  1.0

     negative rho (up, down):  2.515E-04 0.000E+00

     total cpu time spent up to now is      269.8 secs

     total energy              =   -1089.90064843 Ry
     Harris-Foulkes estimate   =   -1089.90329221 Ry
     estimated scf accuracy    <       3.48331538 Ry

     iteration # 78     ecut=    80.00 Ry     beta= 0.40
     Davidson diagonalization with overlap
     ethr =  1.13E-05,  avg # of iterations =  1.0

     negative rho (up, down):  2.532E-04 0.000E+00

     total cpu time spent up to now is      272.6 secs

     total energy              =   -1089.90256468 Ry
     Harris-Foulkes estimate   =   -1089.90070747 Ry
     estimated scf accuracy    <       3.17039509 Ry

     iteration # 79     ecut=    80.00 Ry     beta= 0.40
     Davidson diagonalization with overlap
     ethr =  1.13E-05,  avg # of iterations =  1.0

     negative rho (up, down):  2.446E-04 0.000E+00

     total cpu time spent up to now is      275.6 secs

     total energy              =   -1089.89969608 Ry
     Harris-Foulkes estimate   =   -1089.90259504 Ry
     estimated scf accuracy    <       3.39024495 Ry

     iteration # 80     ecut=    80.00 Ry     beta= 0.40
     Davidson diagonalization with overlap
     ethr =  1.13E-05,  avg # of iterations =  1.0

     negative rho (up, down):  2.069E-04 0.000E+00

     total cpu time spent up to now is      278.5 secs

     total energy              =   -1089.87263844 Ry
     Harris-Foulkes estimate   =   -1089.89976308 Ry
     estimated scf accuracy    <       3.06624818 Ry

     iteration # 81     ecut=    80.00 Ry     beta= 0.40
     Davidson diagonalization with overlap
     ethr =  1.13E-05,  avg # of iterations =  2.0

     negative rho (up, down):  1.928E-04 0.000E+00

     total cpu time spent up to now is      281.8 secs

     total energy              =   -1089.86498307 Ry
     Harris-Foulkes estimate   =   -1089.87990689 Ry
     estimated scf accuracy    <       0.65027606 Ry

     iteration # 82     ecut=    80.00 Ry     beta= 0.40
     Davidson diagonalization with overlap
     ethr =  1.13E-05,  avg # of iterations =  2.5

     negative rho (up, down):  1.766E-04 0.000E+00

     total cpu time spent up to now is      285.5 secs

     total energy              =   -1089.87269493 Ry
     Harris-Foulkes estimate   =   -1089.87282594 Ry
     estimated scf accuracy    <       0.00959098 Ry

     iteration # 83     ecut=    80.00 Ry     beta= 0.40
     Davidson diagonalization with overlap
     ethr =  1.13E-05,  avg # of iterations =  1.0

     negative rho (up, down):  2.004E-04 0.000E+00

     total cpu time spent up to now is      288.3 secs

     total energy              =   -1089.87358084 Ry
     Harris-Foulkes estimate   =   -1089.87273082 Ry
     estimated scf accuracy    <       0.01486705 Ry

     iteration # 84     ecut=    80.00 Ry     beta= 0.40
     Davidson diagonalization with overlap
     ethr =  1.13E-05,  avg # of iterations =  1.0

     negative rho (up, down):  2.191E-04 0.000E+00

     total cpu time spent up to now is      291.2 secs

     total energy              =   -1089.87896358 Ry
     Harris-Foulkes estimate   =   -1089.87425232 Ry
     estimated scf accuracy    <       0.10486684 Ry

     iteration # 85     ecut=    80.00 Ry     beta= 0.40
     Davidson diagonalization with overlap
     ethr =  1.13E-05,  avg # of iterations =  1.0

     negative rho (up, down):  2.160E-04 0.000E+00

     total cpu time spent up to now is      294.1 secs

     total energy              =   -1089.87228865 Ry
     Harris-Foulkes estimate   =   -1089.88351200 Ry
     estimated scf accuracy    <       1.07168089 Ry

     iteration # 86     ecut=    80.00 Ry     beta= 0.40
     Davidson diagonalization with overlap
     ethr =  1.13E-05,  avg # of iterations =  1.0

     negative rho (up, down):  2.179E-04 0.000E+00

     total cpu time spent up to now is      297.0 secs

     total energy              =   -1089.87085826 Ry
     Harris-Foulkes estimate   =   -1089.87557088 Ry
     estimated scf accuracy    <       0.21200570 Ry

     iteration # 87     ecut=    80.00 Ry     beta= 0.40
     Davidson diagonalization with overlap
     ethr =  1.13E-05,  avg # of iterations =  1.0

     negative rho (up, down):  2.183E-04 0.000E+00

     total cpu time spent up to now is      299.8 secs

     total energy              =   -1089.87240485 Ry
     Harris-Foulkes estimate   =   -1089.87265999 Ry
     estimated scf accuracy    <       0.01811641 Ry

     iteration # 88     ecut=    80.00 Ry     beta= 0.40
     Davidson diagonalization with overlap
     ethr =  1.13E-05,  avg # of iterations =  1.0

     negative rho (up, down):  2.192E-04 0.000E+00

     total cpu time spent up to now is      302.9 secs

     total energy              =   -1089.87228336 Ry
     Harris-Foulkes estimate   =   -1089.87244718 Ry
     estimated scf accuracy    <       0.00847287 Ry

     iteration # 89     ecut=    80.00 Ry     beta= 0.40
     Davidson diagonalization with overlap
     ethr =  1.13E-05,  avg # of iterations =  1.0

     negative rho (up, down):  2.193E-04 0.000E+00

     total cpu time spent up to now is      306.0 secs

     total energy              =   -1089.87237906 Ry
     Harris-Foulkes estimate   =   -1089.87231815 Ry
     estimated scf accuracy    <       0.00297503 Ry

     iteration # 90     ecut=    80.00 Ry     beta= 0.40
     Davidson diagonalization with overlap
     ethr =  1.13E-05,  avg # of iterations =  1.0

     negative rho (up, down):  2.235E-04 0.000E+00

     total cpu time spent up to now is      309.1 secs

     total energy              =   -1089.87242271 Ry
     Harris-Foulkes estimate   =   -1089.87239225 Ry
     estimated scf accuracy    <       0.00609414 Ry

     iteration # 91     ecut=    80.00 Ry     beta= 0.40
     Davidson diagonalization with overlap
     ethr =  1.13E-05,  avg # of iterations =  1.0

     negative rho (up, down):  2.226E-04 0.000E+00

     total cpu time spent up to now is      312.1 secs

     total energy              =   -1089.87245324 Ry
     Harris-Foulkes estimate   =   -1089.87242493 Ry
     estimated scf accuracy    <       0.00750388 Ry

     iteration # 92     ecut=    80.00 Ry     beta= 0.40
     Davidson diagonalization with overlap
     ethr =  1.13E-05,  avg # of iterations =  1.0

     negative rho (up, down):  2.220E-04 0.000E+00

     total cpu time spent up to now is      315.0 secs

     total energy              =   -1089.87246234 Ry
     Harris-Foulkes estimate   =   -1089.87245459 Ry
     estimated scf accuracy    <       0.00881327 Ry

     iteration # 93     ecut=    80.00 Ry     beta= 0.40
     Davidson diagonalization with overlap
     ethr =  1.13E-05,  avg # of iterations =  1.0

     negative rho (up, down):  2.168E-04 0.000E+00

     total cpu time spent up to now is      318.0 secs

     total energy              =   -1089.87239005 Ry
     Harris-Foulkes estimate   =   -1089.87246246 Ry
     estimated scf accuracy    <       0.00916183 Ry

     iteration # 94     ecut=    80.00 Ry     beta= 0.40
     Davidson diagonalization with overlap
     ethr =  1.13E-05,  avg # of iterations =  1.0

     negative rho (up, down):  2.182E-04 0.000E+00

     total cpu time spent up to now is      320.9 secs

     total energy              =   -1089.87218023 Ry
     Harris-Foulkes estimate   =   -1089.87239689 Ry
     estimated scf accuracy    <       0.00620550 Ry

     iteration # 95     ecut=    80.00 Ry     beta= 0.40
     Davidson diagonalization with overlap
     ethr =  1.13E-05,  avg # of iterations =  1.0

     negative rho (up, down):  2.185E-04 0.000E+00

     total cpu time spent up to now is      323.9 secs

     total energy              =   -1089.87224619 Ry
     Harris-Foulkes estimate   =   -1089.87225799 Ry
     estimated scf accuracy    <       0.00047785 Ry

     iteration # 96     ecut=    80.00 Ry     beta= 0.40
     Davidson diagonalization with overlap
     ethr =  5.31E-06,  avg # of iterations =  1.0

     negative rho (up, down):  2.202E-04 0.000E+00

     total cpu time spent up to now is      326.7 secs

     total energy              =   -1089.87224477 Ry
     Harris-Foulkes estimate   =   -1089.87224899 Ry
     estimated scf accuracy    <       0.00013010 Ry

     iteration # 97     ecut=    80.00 Ry     beta= 0.40
     Davidson diagonalization with overlap
     ethr =  1.45E-06,  avg # of iterations =  1.0

     negative rho (up, down):  2.194E-04 0.000E+00

     total cpu time spent up to now is      329.7 secs

     total energy              =   -1089.87224626 Ry
     Harris-Foulkes estimate   =   -1089.87224614 Ry
     estimated scf accuracy    <       0.00001861 Ry

     iteration # 98     ecut=    80.00 Ry     beta= 0.40
     Davidson diagonalization with overlap
     ethr =  2.07E-07,  avg # of iterations =  1.0

     negative rho (up, down):  2.196E-04 0.000E+00

     total cpu time spent up to now is      332.5 secs

     total energy              =   -1089.87224566 Ry
     Harris-Foulkes estimate   =   -1089.87224632 Ry
     estimated scf accuracy    <       0.00001999 Ry

     iteration # 99     ecut=    80.00 Ry     beta= 0.40
     Davidson diagonalization with overlap
     ethr =  2.07E-07,  avg # of iterations =  1.0

     negative rho (up, down):  2.187E-04 0.000E+00

     total cpu time spent up to now is      335.5 secs

     total energy              =   -1089.87224561 Ry
     Harris-Foulkes estimate   =   -1089.87224579 Ry
     estimated scf accuracy    <       0.00000544 Ry

     iteration #100     ecut=    80.00 Ry     beta= 0.40
     Davidson diagonalization with overlap
     ethr =  6.05E-08,  avg # of iterations =  1.0

     negative rho (up, down):  2.183E-04 0.000E+00

     total cpu time spent up to now is      338.6 secs

     total energy              =   -1089.87224554 Ry
     Harris-Foulkes estimate   =   -1089.87224566 Ry
     estimated scf accuracy    <       0.00000146 Ry

     iteration #101     ecut=    80.00 Ry     beta= 0.40
     Davidson diagonalization with overlap
     ethr =  1.63E-08,  avg # of iterations =  1.0

     negative rho (up, down):  2.184E-04 0.000E+00

     total cpu time spent up to now is      341.5 secs

     total energy              =   -1089.87224560 Ry
     Harris-Foulkes estimate   =   -1089.87224560 Ry
     estimated scf accuracy    <       0.00000014 Ry

     iteration #102     ecut=    80.00 Ry     beta= 0.40
     Davidson diagonalization with overlap
     ethr =  1.56E-09,  avg # of iterations =  1.0

     negative rho (up, down):  2.184E-04 0.000E+00

     total cpu time spent up to now is      344.4 secs

     total energy              =   -1089.87224561 Ry
     Harris-Foulkes estimate   =   -1089.87224561 Ry
     estimated scf accuracy    <       0.00000002 Ry

     iteration #103     ecut=    80.00 Ry     beta= 0.40
     Davidson diagonalization with overlap
     ethr =  2.19E-10,  avg # of iterations =  1.0

     negative rho (up, down):  2.184E-04 0.000E+00

     total cpu time spent up to now is      347.3 secs

     total energy              =   -1089.87224560 Ry
     Harris-Foulkes estimate   =   -1089.87224561 Ry
     estimated scf accuracy    <       0.00000002 Ry

     iteration #104     ecut=    80.00 Ry     beta= 0.40
     Davidson diagonalization with overlap
     ethr =  2.19E-10,  avg # of iterations =  1.0

     negative rho (up, down):  2.184E-04 0.000E+00

     total cpu time spent up to now is      350.3 secs

     End of self-consistent calculation

     Number of k-points >= 100: set verbosity='high' to print the bands.

     the Fermi energy is  -948.9777 ev

!    total energy              =   -1089.87224560 Ry
     Harris-Foulkes estimate   =   -1089.87224560 Ry
     estimated scf accuracy    <          3.8E-10 Ry

     total all-electron energy =    -16544.958021 Ry

     The total energy is the sum of the following terms:

     one-electron contribution =    -639.56526005 Ry
     hartree contribution      =      10.52673412 Ry
     xc contribution           =     -23.62763689 Ry
     ewald contribution        =     -53.46184109 Ry
     one-center paw contrib.   =    -383.74024822 Ry
     smearing contrib. (-TS)   =      -0.00399347 Ry

     convergence has been achieved in 104 iterations

     negative rho (up, down):  2.184E-04 0.000E+00

     Forces acting on atoms (cartesian axes, Ry/au):

     atom    1 type  1   force =     0.00000000    0.00000000    0.00000000
     atom    2 type  2   force =     0.00000000    0.00000000   -0.00000000
     atom    3 type  3   force =     0.00000000    0.00000000    0.00000000

     Total force =     0.000000     Total SCF correction =     0.000000


     Computing stress (Cartesian axis) and pressure


     negative rho (up, down):  2.184E-04 0.000E+00
          total   stress  (Ry/bohr**3)                   (kbar)     P=********
  -1.96301187  -0.00000000   0.00000000    -288768.97     -0.00      0.00
  -0.00000000  -1.96301187  -0.00000000         -0.00-288768.97     -0.00
   0.00000000  -0.00000000  -1.96301187          0.00     -0.00-288768.97


     init_run     :      1.25s CPU      2.39s WALL (       1 calls)
     electrons    :    208.41s CPU    345.54s WALL (       1 calls)
     forces       :      0.34s CPU      0.48s WALL (       1 calls)
     stress       :      0.82s CPU      1.29s WALL (       1 calls)

     Called by init_run:
     wfcinit      :      0.79s CPU      1.56s WALL (       1 calls)
     potinit      :      0.13s CPU      0.26s WALL (       1 calls)
     hinit0       :      0.29s CPU      0.51s WALL (       1 calls)

     Called by electrons:
     c_bands      :    166.76s CPU    269.90s WALL (     104 calls)
     sum_band     :     32.50s CPU     54.52s WALL (     104 calls)
     v_of_rho     :      1.10s CPU      2.03s WALL (     105 calls)
     newd         :      2.29s CPU      3.44s WALL (     105 calls)
     PAW_pot      :      5.49s CPU     15.12s WALL (     105 calls)
     mix_rho      :      0.30s CPU      0.50s WALL (     104 calls)

     Called by c_bands:
     init_us_2    :      4.72s CPU      6.24s WALL (   23210 calls)
     cegterg      :    156.49s CPU    253.29s WALL (   11440 calls)

     Called by sum_band:
     sum_band:bec :      0.15s CPU      0.21s WALL (   11440 calls)
     addusdens    :      1.95s CPU      2.23s WALL (     104 calls)

     Called by *egterg:
     h_psi        :    125.74s CPU    205.30s WALL (   31127 calls)
     s_psi        :      5.05s CPU      6.74s WALL (   31127 calls)
     g_psi        :      0.23s CPU      0.31s WALL (   19577 calls)
     cdiaghg      :      3.86s CPU      5.59s WALL (   31017 calls)

     Called by h_psi:
     h_psi:pot    :    125.25s CPU    204.64s WALL (   31127 calls)
     h_psi:calbec :     11.68s CPU     21.34s WALL (   31127 calls)
     vloc_psi     :    108.05s CPU    175.80s WALL (   31127 calls)
     add_vuspsi   :      5.42s CPU      7.37s WALL (   31127 calls)

     General routines
     calbec       :     16.43s CPU     30.02s WALL (   43117 calls)
     fft          :      0.71s CPU      2.05s WALL (    1181 calls)
     ffts         :      0.03s CPU      0.06s WALL (     104 calls)
     fftw         :    121.98s CPU    202.99s WALL (  582540 calls)

     Parallel routines
     fft_scatt_xy :      8.87s CPU     12.04s WALL (  583825 calls)
     fft_scatt_yz :     67.00s CPU    130.12s WALL (  583825 calls)

     PWSCF        :  3m32.61s CPU     5m52.05s WALL


   This run was terminated on:  17:53:47  23Oct2018            

=------------------------------------------------------------------------------=
   JOB DONE.
=------------------------------------------------------------------------------=
