
     Program PWSCF v.6.3MaX starts on 23Oct2018 at 13:22:19 

     This program is part of the open-source Quantum ESPRESSO suite
     for quantum simulation of materials; please cite
         "P. Giannozzi et al., J. Phys.:Condens. Matter 21 395502 (2009);
         "P. Giannozzi et al., J. Phys.:Condens. Matter 29 465901 (2017);
          URL http://www.quantum-espresso.org", 
     in publications or presentations arising from this work. More details at
     http://www.quantum-espresso.org/quote

     Parallel version (MPI), running on     8 processors

     MPI processes distributed on     1 nodes
     R & G space division:  proc/nbgrp/npool/nimage =       8
     Waiting for input...
     Reading input from standard input
Warning: card &CELL ignored
Warning: card                CELL_DYNAMICS = 'BFGS' , ignored
Warning: card / ignored

     Current dimensions of program PWSCF are:
     Max number of different atomic species (ntypx) = 10
     Max number of k-points (npk) =  40000
     Max angular momentum in pseudopotentials (lmaxx) =  3
               file N.pbe-n-kjpaw_psl.1.0.0.UPF: wavefunction(s)  2S renormalized
               file Na.pbe-spnl-kjpaw_psl.1.0.0.UPF: wavefunction(s)  2P renormalized

     Subspace diagonalization in iterative solution of the eigenvalue problem:
     a serial algorithm will be used


     Parallelization info
     --------------------
     sticks:   dense  smooth     PW     G-vecs:    dense   smooth      PW
     Min         239     239     69                 6916     6916    1080
     Max         240     240     70                 6919     6919    1083
     Sum        1915    1915    559                55345    55345    8657



     bravais-lattice index     =            2
     lattice parameter (alat)  =      14.6200  a.u.
     unit-cell volume          =     781.2358 (a.u.)^3
     number of atoms/cell      =            3
     number of atomic types    =            3
     number of electrons       =         9.00
     number of Kohn-Sham states=            9
     kinetic-energy cutoff     =      65.0000  Ry
     charge density cutoff     =     260.0000  Ry
     convergence threshold     =      1.0E-09
     mixing beta               =       0.4000
     number of iterations used =            8  plain     mixing
     Exchange-correlation      = SLA PW PBX PBC ( 1  4  3  4 0 0)

     celldm(1)=  14.620000  celldm(2)=   0.000000  celldm(3)=   0.000000
     celldm(4)=   0.000000  celldm(5)=   0.000000  celldm(6)=   0.000000

     crystal axes: (cart. coord. in units of alat)
               a(1) = (  -0.500000   0.000000   0.500000 )  
               a(2) = (   0.000000   0.500000   0.500000 )  
               a(3) = (  -0.500000   0.500000   0.000000 )  

     reciprocal axes: (cart. coord. in units 2 pi/alat)
               b(1) = ( -1.000000 -1.000000  1.000000 )  
               b(2) = (  1.000000  1.000000  1.000000 )  
               b(3) = ( -1.000000  1.000000 -1.000000 )  


     PseudoPot. # 1 for N  read from file:
     ./../ps/N.pbe-n-kjpaw_psl.1.0.0.UPF
     MD5 check sum: 200139db3989ad6e773ddd42f12fc3a8
     Pseudo is Projector augmented-wave + core cor, Zval =  5.0
     Generated using "atomic" code by A. Dal Corso v.6.3
     Shape of augmentation charge: PSQ
     Using radial grid of 1085 points,  4 beta functions with: 
                l(1) =   0
                l(2) =   0
                l(3) =   1
                l(4) =   1
     Q(r) pseudized with 0 coefficients 


     PseudoPot. # 2 for Na read from file:
     ./../ps/Na.pbe-spnl-kjpaw_psl.1.0.0.UPF
     MD5 check sum: 09e782c158f17eb2240230c4112357ee
     Pseudo is Projector augmented-wave + core cor, Zval =  9.0
     Generated using "atomic" code by A. Dal Corso v.6.3
     Shape of augmentation charge: PSQ
     Using radial grid of 1121 points,  4 beta functions with: 
                l(1) =   0
                l(2) =   0
                l(3) =   1
                l(4) =   1
     Q(r) pseudized with 0 coefficients 


     PseudoPot. # 3 for Cs read from file:
     ./../ps/Cs.pbe-spnl-kjpaw_psl.1.0.0.UPF
     MD5 check sum: f98336d4a4407e24c1ab1e3bc36275e8
     Pseudo is Projector augmented-wave + core cor, Zval = -5.0
     Generated using "atomic" code by A. Dal Corso v.6.2.2
     Shape of augmentation charge: PSQ
     Using radial grid of 1251 points,  6 beta functions with: 
                l(1) =   0
                l(2) =   0
                l(3) =   1
                l(4) =   1
                l(5) =   2
                l(6) =   2
     Q(r) pseudized with 0 coefficients 


     atomic species   valence    mass     pseudopotential
        N              5.00    14.00670     N ( 1.00)
        Na             9.00    22.98977     Na( 1.00)
        Cs            -5.00   132.90545     Cs( 1.00)

     24 Sym. Ops. (no inversion) found



   Cartesian axes

     site n.     atom                  positions (alat units)
         1           N   tau(   1) = (   0.0000000   0.0000000   0.0000000  )
         2           Na  tau(   2) = (  -0.2500000   0.2500000   0.2500000  )
         3           Cs  tau(   3) = (  -0.7500000   0.7500000   0.7500000  )

     number of k points=   110  Methfessel-Paxton smearing, width (Ry)=  0.0200

     Number of k-points >= 100: set verbosity='high' to print them.

     Dense  grid:    55345 G-vectors     FFT dimensions: (  54,  54,  54)

     Estimated max dynamical RAM per process >      48.56 MB

     Estimated total dynamical RAM >     388.52 MB

     Check: negative/imaginary core charge=   -0.000003    0.000000

     Initial potential from superposition of free atoms

     starting charge   22.95298, renormalised to    9.00000
     Starting wfcs are   14 randomized atomic wfcs
     Checking if some PAW data can be deallocated... 

     total cpu time spent up to now is        4.7 secs

     Self-consistent Calculation

     iteration #  1     ecut=    65.00 Ry     beta= 0.40
     Davidson diagonalization with overlap
     ethr =  1.00E-02,  avg # of iterations = 12.3

     total cpu time spent up to now is       15.2 secs

     total energy              =    -717.46546834 Ry
     Harris-Foulkes estimate   =    -745.45752936 Ry
     estimated scf accuracy    <      48.62150157 Ry

     iteration #  2     ecut=    65.00 Ry     beta= 0.40
     Davidson diagonalization with overlap
     ethr =  1.00E-02,  avg # of iterations =  3.0

     total cpu time spent up to now is       20.6 secs

     total energy              =    -709.73086539 Ry
     Harris-Foulkes estimate   =    -719.39949813 Ry
     estimated scf accuracy    <      11.19402212 Ry

     iteration #  3     ecut=    65.00 Ry     beta= 0.40
     Davidson diagonalization with overlap
     ethr =  1.00E-02,  avg # of iterations =  9.7

     negative rho (up, down):  9.324E-02 0.000E+00

     total cpu time spent up to now is       30.5 secs

     total energy              =    -712.57981502 Ry
     Harris-Foulkes estimate   =    -713.18348915 Ry
     estimated scf accuracy    <       1.10196818 Ry

     iteration #  4     ecut=    65.00 Ry     beta= 0.40
     Davidson diagonalization with overlap
     ethr =  1.00E-02,  avg # of iterations =  3.2

     negative rho (up, down):  1.835E-01 0.000E+00

     total cpu time spent up to now is       35.5 secs

     total energy              =    -712.72279801 Ry
     Harris-Foulkes estimate   =    -712.91624986 Ry
     estimated scf accuracy    <       0.28342152 Ry

     iteration #  5     ecut=    65.00 Ry     beta= 0.40
     Davidson diagonalization with overlap
     ethr =  3.15E-03,  avg # of iterations =  6.1

     negative rho (up, down):  2.247E-01 0.000E+00

     total cpu time spent up to now is       42.1 secs

     total energy              =    -712.76772029 Ry
     Harris-Foulkes estimate   =    -712.81709835 Ry
     estimated scf accuracy    <       0.08770238 Ry

     iteration #  6     ecut=    65.00 Ry     beta= 0.40
     Davidson diagonalization with overlap
     ethr =  9.74E-04,  avg # of iterations =  2.6

     negative rho (up, down):  2.235E-01 0.000E+00

     total cpu time spent up to now is       46.7 secs

     total energy              =    -712.78467495 Ry
     Harris-Foulkes estimate   =    -712.78468126 Ry
     estimated scf accuracy    <       0.00003953 Ry

     iteration #  7     ecut=    65.00 Ry     beta= 0.40
     Davidson diagonalization with overlap
     ethr =  4.39E-07,  avg # of iterations = 12.7

     negative rho (up, down):  2.232E-01 0.000E+00

     total cpu time spent up to now is       58.8 secs

     total energy              =    -712.78581168 Ry
     Harris-Foulkes estimate   =    -712.78583444 Ry
     estimated scf accuracy    <       0.00001955 Ry

     iteration #  8     ecut=    65.00 Ry     beta= 0.40
     Davidson diagonalization with overlap
     ethr =  2.17E-07,  avg # of iterations =  3.0

     negative rho (up, down):  2.239E-01 0.000E+00

     total cpu time spent up to now is       64.3 secs

     total energy              =    -712.78582313 Ry
     Harris-Foulkes estimate   =    -712.78582455 Ry
     estimated scf accuracy    <       0.00000540 Ry

     iteration #  9     ecut=    65.00 Ry     beta= 0.40
     Davidson diagonalization with overlap
     ethr =  6.00E-08,  avg # of iterations =  2.0

     negative rho (up, down):  2.238E-01 0.000E+00

     total cpu time spent up to now is       68.6 secs

     total energy              =    -712.78582202 Ry
     Harris-Foulkes estimate   =    -712.78582452 Ry
     estimated scf accuracy    <       0.00000150 Ry

     iteration # 10     ecut=    65.00 Ry     beta= 0.40
     Davidson diagonalization with overlap
     ethr =  1.67E-08,  avg # of iterations =  2.1

     negative rho (up, down):  2.237E-01 0.000E+00

     total cpu time spent up to now is       73.2 secs

     total energy              =    -712.78582176 Ry
     Harris-Foulkes estimate   =    -712.78582224 Ry
     estimated scf accuracy    <       0.00000027 Ry

     iteration # 11     ecut=    65.00 Ry     beta= 0.40
     Davidson diagonalization with overlap
     ethr =  2.98E-09,  avg # of iterations =  3.0

     negative rho (up, down):  2.237E-01 0.000E+00

     total cpu time spent up to now is       78.3 secs

     total energy              =    -712.78582183 Ry
     Harris-Foulkes estimate   =    -712.78582186 Ry
     estimated scf accuracy    <       0.00000002 Ry

     iteration # 12     ecut=    65.00 Ry     beta= 0.40
     Davidson diagonalization with overlap
     ethr =  1.72E-10,  avg # of iterations =  3.1

     negative rho (up, down):  2.237E-01 0.000E+00

     total cpu time spent up to now is       84.0 secs

     total energy              =    -712.78582184 Ry
     Harris-Foulkes estimate   =    -712.78582184 Ry
     estimated scf accuracy    <          1.5E-09 Ry

     iteration # 13     ecut=    65.00 Ry     beta= 0.40
     Davidson diagonalization with overlap
     ethr =  1.69E-11,  avg # of iterations =  2.6

     negative rho (up, down):  2.237E-01 0.000E+00

     total cpu time spent up to now is       89.0 secs

     End of self-consistent calculation

     Number of k-points >= 100: set verbosity='high' to print the bands.

     the Fermi energy is  -323.9250 ev

!    total energy              =    -712.78582184 Ry
     Harris-Foulkes estimate   =    -712.78582184 Ry
     estimated scf accuracy    <          1.4E-11 Ry

     total all-electron energy =    -16167.871598 Ry

     The total energy is the sum of the following terms:

     one-electron contribution =    -316.86819344 Ry
     hartree contribution      =      54.82802172 Ry
     xc contribution           =     -28.95973694 Ry
     ewald contribution        =     -36.56760677 Ry
     one-center paw contrib.   =    -385.20965562 Ry
     smearing contrib. (-TS)   =      -0.00865080 Ry

     convergence has been achieved in  13 iterations

     negative rho (up, down):  2.237E-01 0.000E+00

     Forces acting on atoms (cartesian axes, Ry/au):

     atom    1 type  1   force =     0.00000000   -0.00000000   -0.00000000
     atom    2 type  2   force =     0.00000000    0.00000000   -0.00000000
     atom    3 type  3   force =     0.00000000    0.00000000    0.00000000

     Total force =     0.000000     Total SCF correction =     0.000000


     Computing stress (Cartesian axis) and pressure


     negative rho (up, down):  2.237E-01 0.000E+00
          total   stress  (Ry/bohr**3)                   (kbar)     P=********
  -0.14347434  -0.00000000  -0.00000000     -21105.80     -0.00     -0.00
  -0.00000000  -0.14347434   0.00000000         -0.00 -21105.80      0.00
  -0.00000000   0.00000000  -0.14347434         -0.00      0.00 -21105.80


     Writing output data file NNaCs.save/

     init_run     :      2.50s CPU      2.79s WALL (       1 calls)
     electrons    :     79.43s CPU     84.32s WALL (       1 calls)
     forces       :      0.71s CPU      0.75s WALL (       1 calls)
     stress       :      1.63s CPU      1.71s WALL (       1 calls)

     Called by init_run:
     wfcinit      :      1.93s CPU      2.03s WALL (       1 calls)
     potinit      :      0.11s CPU      0.18s WALL (       1 calls)
     hinit0       :      0.35s CPU      0.45s WALL (       1 calls)

     Called by electrons:
     c_bands      :     68.26s CPU     71.80s WALL (      13 calls)
     sum_band     :      9.15s CPU      9.67s WALL (      13 calls)
     v_of_rho     :      0.27s CPU      0.33s WALL (      14 calls)
     newd         :      0.95s CPU      1.02s WALL (      14 calls)
     PAW_pot      :      0.80s CPU      1.59s WALL (      14 calls)
     mix_rho      :      0.08s CPU      0.09s WALL (      13 calls)

     Called by c_bands:
     init_us_2    :      2.10s CPU      2.20s WALL (    3190 calls)
     cegterg      :     65.33s CPU     68.71s WALL (    1430 calls)

     Called by sum_band:
     sum_band:bec :      0.04s CPU      0.05s WALL (    1430 calls)
     addusdens    :      0.82s CPU      0.84s WALL (      13 calls)

     Called by *egterg:
     h_psi        :     50.80s CPU     53.58s WALL (    8728 calls)
     s_psi        :      3.29s CPU      3.42s WALL (    8728 calls)
     g_psi        :      0.17s CPU      0.18s WALL (    7188 calls)
     cdiaghg      :      1.84s CPU      1.91s WALL (    8618 calls)

     Called by h_psi:
     h_psi:pot    :     50.46s CPU     53.22s WALL (    8728 calls)
     h_psi:calbec :      5.47s CPU      5.83s WALL (    8728 calls)
     vloc_psi     :     40.71s CPU     42.92s WALL (    8728 calls)
     add_vuspsi   :      4.23s CPU      4.43s WALL (    8728 calls)

     General routines
     calbec       :      7.00s CPU      7.45s WALL (   10708 calls)
     fft          :      0.14s CPU      0.16s WALL (     180 calls)
     ffts         :      0.01s CPU      0.01s WALL (      13 calls)
     fftw         :     38.29s CPU     40.47s WALL (  105958 calls)

     Parallel routines
     fft_scatt_xy :      4.56s CPU      4.81s WALL (  106151 calls)
     fft_scatt_yz :      6.98s CPU      7.59s WALL (  106151 calls)

     PWSCF        :  1m26.18s CPU     1m31.64s WALL


   This run was terminated on:  13:23:51  23Oct2018            

=------------------------------------------------------------------------------=
   JOB DONE.
=------------------------------------------------------------------------------=
