
     Program PWSCF v.6.3MaX starts on 23Oct2018 at 18:15:17 

     This program is part of the open-source Quantum ESPRESSO suite
     for quantum simulation of materials; please cite
         "P. Giannozzi et al., J. Phys.:Condens. Matter 21 395502 (2009);
         "P. Giannozzi et al., J. Phys.:Condens. Matter 29 465901 (2017);
          URL http://www.quantum-espresso.org", 
     in publications or presentations arising from this work. More details at
     http://www.quantum-espresso.org/quote

     Parallel version (MPI), running on     8 processors

     MPI processes distributed on     1 nodes
     R & G space division:  proc/nbgrp/npool/nimage =       8
     Waiting for input...
     Reading input from standard input
Warning: card &CELL ignored
Warning: card                CELL_DYNAMICS = 'BFGS' , ignored
Warning: card / ignored

     Current dimensions of program PWSCF are:
     Max number of different atomic species (ntypx) = 10
     Max number of k-points (npk) =  40000
     Max angular momentum in pseudopotentials (lmaxx) =  3
     Message from routine iosys:
     minimal I/O required, wf_collect reset to FALSE
               file N.pbe-n-kjpaw_psl.1.0.0.UPF: wavefunction(s)  2S renormalized
               file Na.pbe-spnl-kjpaw_psl.1.0.0.UPF: wavefunction(s)  2P renormalized

     Subspace diagonalization in iterative solution of the eigenvalue problem:
     a serial algorithm will be used


     Parallelization info
     --------------------
     sticks:   dense  smooth     PW     G-vecs:    dense   smooth      PW
     Min         151     151     45                 3491     3491     579
     Max         152     152     46                 3494     3494     582
     Sum        1213    1213    367                27941    27941    4645



     bravais-lattice index     =            2
     lattice parameter (alat)  =      10.5000  a.u.
     unit-cell volume          =     289.4062 (a.u.)^3
     number of atoms/cell      =            3
     number of atomic types    =            3
     number of electrons       =         9.00
     number of Kohn-Sham states=            9
     kinetic-energy cutoff     =      80.0000  Ry
     charge density cutoff     =     320.0000  Ry
     convergence threshold     =      1.0E-09
     mixing beta               =       0.4000
     number of iterations used =            8  plain     mixing
     Exchange-correlation      = SLA PW PBX PBC ( 1  4  3  4 0 0)

     celldm(1)=  10.500000  celldm(2)=   0.000000  celldm(3)=   0.000000
     celldm(4)=   0.000000  celldm(5)=   0.000000  celldm(6)=   0.000000

     crystal axes: (cart. coord. in units of alat)
               a(1) = (  -0.500000   0.000000   0.500000 )  
               a(2) = (   0.000000   0.500000   0.500000 )  
               a(3) = (  -0.500000   0.500000   0.000000 )  

     reciprocal axes: (cart. coord. in units 2 pi/alat)
               b(1) = ( -1.000000 -1.000000  1.000000 )  
               b(2) = (  1.000000  1.000000  1.000000 )  
               b(3) = ( -1.000000  1.000000 -1.000000 )  


     PseudoPot. # 1 for N  read from file:
     ./ps/N.pbe-n-kjpaw_psl.1.0.0.UPF
     MD5 check sum: 200139db3989ad6e773ddd42f12fc3a8
     Pseudo is Projector augmented-wave + core cor, Zval =  5.0
     Generated using "atomic" code by A. Dal Corso v.6.3
     Shape of augmentation charge: PSQ
     Using radial grid of 1085 points,  4 beta functions with: 
                l(1) =   0
                l(2) =   0
                l(3) =   1
                l(4) =   1
     Q(r) pseudized with 0 coefficients 


     PseudoPot. # 2 for Na read from file:
     ./ps/Na.pbe-spnl-kjpaw_psl.1.0.0.UPF
     MD5 check sum: 09e782c158f17eb2240230c4112357ee
     Pseudo is Projector augmented-wave + core cor, Zval =  9.0
     Generated using "atomic" code by A. Dal Corso v.6.3
     Shape of augmentation charge: PSQ
     Using radial grid of 1121 points,  4 beta functions with: 
                l(1) =   0
                l(2) =   0
                l(3) =   1
                l(4) =   1
     Q(r) pseudized with 0 coefficients 


     PseudoPot. # 3 for Cs read from file:
     ./ps/Cs.pbe-spnl-kjpaw_psl.1.0.0.UPF
     MD5 check sum: f98336d4a4407e24c1ab1e3bc36275e8
     Pseudo is Projector augmented-wave + core cor, Zval = -5.0
     Generated using "atomic" code by A. Dal Corso v.6.2.2
     Shape of augmentation charge: PSQ
     Using radial grid of 1251 points,  6 beta functions with: 
                l(1) =   0
                l(2) =   0
                l(3) =   1
                l(4) =   1
                l(5) =   2
                l(6) =   2
     Q(r) pseudized with 0 coefficients 


     atomic species   valence    mass     pseudopotential
        N              5.00    14.00670     N ( 1.00)
        Na             9.00    22.98977     Na( 1.00)
        Cs            -5.00   132.90545     Cs( 1.00)

     24 Sym. Ops. (no inversion) found



   Cartesian axes

     site n.     atom                  positions (alat units)
         1           N   tau(   1) = (   0.0000000   0.0000000   0.0000000  )
         2           Na  tau(   2) = (  -0.2500000   0.2500000   0.2500000  )
         3           Cs  tau(   3) = (  -0.7500000   0.7500000   0.7500000  )

     number of k points=   110  Methfessel-Paxton smearing, width (Ry)=  0.0200

     Number of k-points >= 100: set verbosity='high' to print them.

     Dense  grid:    27941 G-vectors     FFT dimensions: (  45,  45,  45)

     Estimated max dynamical RAM per process >      27.30 MB

     Estimated total dynamical RAM >     218.38 MB

     Check: negative/imaginary core charge=   -0.000003    0.000000

     Initial potential from superposition of free atoms

     starting charge   22.95298, renormalised to    9.00000
     Starting wfcs are   14 randomized atomic wfcs
     Checking if some PAW data can be deallocated... 

     total cpu time spent up to now is        5.4 secs

     Self-consistent Calculation

     iteration #  1     ecut=    80.00 Ry     beta= 0.40
     Davidson diagonalization with overlap
     ethr =  1.00E-02,  avg # of iterations =  5.0

     total cpu time spent up to now is       12.3 secs

     total energy              =   -1029.54876759 Ry
     Harris-Foulkes estimate   =   -1052.64490010 Ry
     estimated scf accuracy    <      40.25252246 Ry

     iteration #  2     ecut=    80.00 Ry     beta= 0.40
     Davidson diagonalization with overlap
     ethr =  1.00E-02,  avg # of iterations =  4.0

     total cpu time spent up to now is       16.4 secs

     total energy              =   -1037.48018094 Ry
     Harris-Foulkes estimate   =   -1051.98966565 Ry
     estimated scf accuracy    <      49.60045388 Ry

     iteration #  3     ecut=    80.00 Ry     beta= 0.40
     Davidson diagonalization with overlap
     ethr =  1.00E-02,  avg # of iterations =  2.0

     total cpu time spent up to now is       20.2 secs

     total energy              =   -1025.88313374 Ry
     Harris-Foulkes estimate   =   -1039.42967554 Ry
     estimated scf accuracy    <      18.11778193 Ry

     iteration #  4     ecut=    80.00 Ry     beta= 0.40
     Davidson diagonalization with overlap
     ethr =  1.00E-02,  avg # of iterations =  9.6

     total cpu time spent up to now is       27.8 secs

     total energy              =   -1048.09786031 Ry
     Harris-Foulkes estimate   =   -1058.94440467 Ry
     estimated scf accuracy    <      48.82740563 Ry

     iteration #  5     ecut=    80.00 Ry     beta= 0.40
     Davidson diagonalization with overlap
     ethr =  1.00E-02,  avg # of iterations =  2.0

     total cpu time spent up to now is       31.3 secs

     total energy              =   -1045.72463237 Ry
     Harris-Foulkes estimate   =   -1048.19018340 Ry
     estimated scf accuracy    <      35.91684257 Ry

     iteration #  6     ecut=    80.00 Ry     beta= 0.40
     Davidson diagonalization with overlap
     ethr =  1.00E-02,  avg # of iterations =  1.0

     total cpu time spent up to now is       34.4 secs

     total energy              =   -1049.07403837 Ry
     Harris-Foulkes estimate   =   -1045.73899303 Ry
     estimated scf accuracy    <      33.01753648 Ry

     iteration #  7     ecut=    80.00 Ry     beta= 0.40
     Davidson diagonalization with overlap
     ethr =  1.00E-02,  avg # of iterations =  1.0

     negative rho (up, down):  1.996E+00 0.000E+00

     total cpu time spent up to now is       37.4 secs

     total energy              =   -1019.76722026 Ry
     Harris-Foulkes estimate   =   -1049.07998530 Ry
     estimated scf accuracy    <      36.81179300 Ry

     iteration #  8     ecut=    80.00 Ry     beta= 0.40
     Davidson diagonalization with overlap
     ethr =  1.00E-02,  avg # of iterations =  6.0

     negative rho (up, down):  2.720E+00 0.000E+00

     total cpu time spent up to now is       45.1 secs

     total energy              =   -1180.70019354 Ry
     Harris-Foulkes estimate   =   -1156.37017897 Ry
     estimated scf accuracy    <     174.42079032 Ry

     iteration #  9     ecut=    80.00 Ry     beta= 0.40
     Davidson diagonalization with overlap
     ethr =  1.00E-02,  avg # of iterations =  2.2

     negative rho (up, down):  2.809E+00 0.000E+00

     total cpu time spent up to now is       48.6 secs

     total energy              =   -1182.99353274 Ry
     Harris-Foulkes estimate   =   -1180.77698227 Ry
     estimated scf accuracy    <     200.39024319 Ry

     iteration # 10     ecut=    80.00 Ry     beta= 0.40
     Davidson diagonalization with overlap
     ethr =  1.00E-02,  avg # of iterations =  1.0

     negative rho (up, down):  8.526E-01 0.000E+00

     total cpu time spent up to now is       51.8 secs

     total energy              =   -1119.41929928 Ry
     Harris-Foulkes estimate   =   -1183.00574740 Ry
     estimated scf accuracy    <     202.89751166 Ry

     iteration # 11     ecut=    80.00 Ry     beta= 0.40
     Davidson diagonalization with overlap
     ethr =  1.00E-02,  avg # of iterations =  3.1

     total cpu time spent up to now is       55.9 secs

     total energy              =   -1063.62699685 Ry
     Harris-Foulkes estimate   =   -1119.91119494 Ry
     estimated scf accuracy    <     136.06791759 Ry

     iteration # 12     ecut=    80.00 Ry     beta= 0.40
     Davidson diagonalization with overlap
     ethr =  1.00E-02,  avg # of iterations =  2.7

     total cpu time spent up to now is       60.1 secs

     total energy              =   -1038.81646621 Ry
     Harris-Foulkes estimate   =   -1064.19790242 Ry
     estimated scf accuracy    <      71.49489545 Ry

     iteration # 13     ecut=    80.00 Ry     beta= 0.40
     Davidson diagonalization with overlap
     ethr =  1.00E-02,  avg # of iterations =  2.0

     total cpu time spent up to now is       64.0 secs

     total energy              =   -1056.19487018 Ry
     Harris-Foulkes estimate   =   -1039.65469006 Ry
     estimated scf accuracy    <      35.13556274 Ry

     iteration # 14     ecut=    80.00 Ry     beta= 0.40
     Davidson diagonalization with overlap
     ethr =  1.00E-02,  avg # of iterations =  2.0

     negative rho (up, down):  1.124E-06 0.000E+00

     total cpu time spent up to now is       67.9 secs

     total energy              =   -1045.08837253 Ry
     Harris-Foulkes estimate   =   -1058.24119770 Ry
     estimated scf accuracy    <      64.50927271 Ry

     iteration # 15     ecut=    80.00 Ry     beta= 0.40
     Davidson diagonalization with overlap
     ethr =  1.00E-02,  avg # of iterations =  2.0

     negative rho (up, down):  4.681E-04 0.000E+00

     total cpu time spent up to now is       71.6 secs

     total energy              =   -1041.03605188 Ry
     Harris-Foulkes estimate   =   -1045.33796514 Ry
     estimated scf accuracy    <      44.91421944 Ry

     iteration # 16     ecut=    80.00 Ry     beta= 0.40
     Davidson diagonalization with overlap
     ethr =  1.00E-02,  avg # of iterations =  1.0

     negative rho (up, down):  1.193E-01 0.000E+00

     total cpu time spent up to now is       74.7 secs

     total energy              =   -1016.54112656 Ry
     Harris-Foulkes estimate   =   -1041.45104429 Ry
     estimated scf accuracy    <      35.16238918 Ry

     iteration # 17     ecut=    80.00 Ry     beta= 0.40
     Davidson diagonalization with overlap
     ethr =  1.00E-02,  avg # of iterations =  7.7

     negative rho (up, down):  3.224E-04 0.000E+00

     total cpu time spent up to now is       83.4 secs

     total energy              =   -1054.06082553 Ry
     Harris-Foulkes estimate   =   -1117.11434916 Ry
     estimated scf accuracy    <     121.60877448 Ry

     iteration # 18     ecut=    80.00 Ry     beta= 0.40
     Davidson diagonalization with overlap
     ethr =  1.00E-02,  avg # of iterations =  3.9

     negative rho (up, down):  9.996E-04 0.000E+00

     total cpu time spent up to now is       87.6 secs

     total energy              =   -1036.96288771 Ry
     Harris-Foulkes estimate   =   -1055.49525466 Ry
     estimated scf accuracy    <      45.03348874 Ry

     iteration # 19     ecut=    80.00 Ry     beta= 0.40
     Davidson diagonalization with overlap
     ethr =  1.00E-02,  avg # of iterations =  4.4

     negative rho (up, down):  3.360E-04 0.000E+00

     total cpu time spent up to now is       92.2 secs

     total energy              =   -1037.86479499 Ry
     Harris-Foulkes estimate   =   -1038.68596216 Ry
     estimated scf accuracy    <       2.78928013 Ry

     iteration # 20     ecut=    80.00 Ry     beta= 0.40
     Davidson diagonalization with overlap
     ethr =  1.00E-02,  avg # of iterations =  1.0

     negative rho (up, down):  1.246E-04 0.000E+00

     total cpu time spent up to now is       95.3 secs

     total energy              =   -1038.11136813 Ry
     Harris-Foulkes estimate   =   -1038.70160733 Ry
     estimated scf accuracy    <      13.75151858 Ry

     iteration # 21     ecut=    80.00 Ry     beta= 0.40
     Davidson diagonalization with overlap
     ethr =  1.00E-02,  avg # of iterations =  1.0

     total cpu time spent up to now is       98.4 secs

     total energy              =   -1035.46553062 Ry
     Harris-Foulkes estimate   =   -1038.12487779 Ry
     estimated scf accuracy    <      13.70520969 Ry

     iteration # 22     ecut=    80.00 Ry     beta= 0.40
     Davidson diagonalization with overlap
     ethr =  1.00E-02,  avg # of iterations =  1.0

     total cpu time spent up to now is      101.7 secs

     total energy              =   -1041.42803780 Ry
     Harris-Foulkes estimate   =   -1041.33611462 Ry
     estimated scf accuracy    <      24.53550544 Ry

     iteration # 23     ecut=    80.00 Ry     beta= 0.40
     Davidson diagonalization with overlap
     ethr =  1.00E-02,  avg # of iterations =  1.0

     total cpu time spent up to now is      105.0 secs

     total energy              =   -1047.47188010 Ry
     Harris-Foulkes estimate   =   -1041.43281584 Ry
     estimated scf accuracy    <      24.68257062 Ry

     iteration # 24     ecut=    80.00 Ry     beta= 0.40
     Davidson diagonalization with overlap
     ethr =  1.00E-02,  avg # of iterations =  1.0

     negative rho (up, down):  2.460E-02 0.000E+00

     total cpu time spent up to now is      108.1 secs

     total energy              =   -1036.15451711 Ry
     Harris-Foulkes estimate   =   -1047.61584882 Ry
     estimated scf accuracy    <      34.64942931 Ry

     iteration # 25     ecut=    80.00 Ry     beta= 0.40
     Davidson diagonalization with overlap
     ethr =  1.00E-02,  avg # of iterations =  5.7

     negative rho (up, down):  2.114E-03 0.000E+00

     total cpu time spent up to now is      113.8 secs

     total energy              =   -1035.43290195 Ry
     Harris-Foulkes estimate   =   -1038.20007144 Ry
     estimated scf accuracy    <      14.98938931 Ry

     iteration # 26     ecut=    80.00 Ry     beta= 0.40
     Davidson diagonalization with overlap
     ethr =  1.00E-02,  avg # of iterations =  1.0

     negative rho (up, down):  7.364E-03 0.000E+00

     total cpu time spent up to now is      116.9 secs

     total energy              =   -1041.39516667 Ry
     Harris-Foulkes estimate   =   -1039.80489911 Ry
     estimated scf accuracy    <      22.61117051 Ry

     iteration # 27     ecut=    80.00 Ry     beta= 0.40
     Davidson diagonalization with overlap
     ethr =  1.00E-02,  avg # of iterations =  1.0

     negative rho (up, down):  8.562E-04 0.000E+00

     total cpu time spent up to now is      120.0 secs

     total energy              =   -1039.03199191 Ry
     Harris-Foulkes estimate   =   -1041.39960497 Ry
     estimated scf accuracy    <      24.56831372 Ry

     iteration # 28     ecut=    80.00 Ry     beta= 0.40
     Davidson diagonalization with overlap
     ethr =  1.00E-02,  avg # of iterations =  1.0

     total cpu time spent up to now is      123.0 secs

     total energy              =   -1040.16484537 Ry
     Harris-Foulkes estimate   =   -1039.23280165 Ry
     estimated scf accuracy    <      11.45974402 Ry

     iteration # 29     ecut=    80.00 Ry     beta= 0.40
     Davidson diagonalization with overlap
     ethr =  1.00E-02,  avg # of iterations =  1.0

     negative rho (up, down):  5.928E-03 0.000E+00

     total cpu time spent up to now is      126.1 secs

     total energy              =   -1039.68869089 Ry
     Harris-Foulkes estimate   =   -1040.33583650 Ry
     estimated scf accuracy    <      23.23050549 Ry

     iteration # 30     ecut=    80.00 Ry     beta= 0.40
     Davidson diagonalization with overlap
     ethr =  1.00E-02,  avg # of iterations =  1.0

     negative rho (up, down):  7.020E-03 0.000E+00

     total cpu time spent up to now is      129.4 secs

     total energy              =   -1039.65581204 Ry
     Harris-Foulkes estimate   =   -1039.69162451 Ry
     estimated scf accuracy    <      14.36426445 Ry

     iteration # 31     ecut=    80.00 Ry     beta= 0.40
     Davidson diagonalization with overlap
     ethr =  1.00E-02,  avg # of iterations =  1.0

     negative rho (up, down):  8.188E-04 0.000E+00

     total cpu time spent up to now is      132.6 secs

     total energy              =   -1043.18025701 Ry
     Harris-Foulkes estimate   =   -1039.65823492 Ry
     estimated scf accuracy    <      18.58711884 Ry

     iteration # 32     ecut=    80.00 Ry     beta= 0.40
     Davidson diagonalization with overlap
     ethr =  1.00E-02,  avg # of iterations =  1.0

     negative rho (up, down):  2.388E-03 0.000E+00

     total cpu time spent up to now is      135.7 secs

     total energy              =   -1047.13989486 Ry
     Harris-Foulkes estimate   =   -1043.53389462 Ry
     estimated scf accuracy    <      27.19487898 Ry

     iteration # 33     ecut=    80.00 Ry     beta= 0.40
     Davidson diagonalization with overlap
     ethr =  1.00E-02,  avg # of iterations =  1.0

     negative rho (up, down):  1.080E-08 0.000E+00

     total cpu time spent up to now is      138.8 secs

     total energy              =   -1043.75695152 Ry
     Harris-Foulkes estimate   =   -1047.28523738 Ry
     estimated scf accuracy    <      34.55285120 Ry

     iteration # 34     ecut=    80.00 Ry     beta= 0.40
     Davidson diagonalization with overlap
     ethr =  1.00E-02,  avg # of iterations =  1.0

     negative rho (up, down):  9.979E-03 0.000E+00

     total cpu time spent up to now is      142.1 secs

     total energy              =   -1036.13848995 Ry
     Harris-Foulkes estimate   =   -1043.87862557 Ry
     estimated scf accuracy    <      27.87848872 Ry

     iteration # 35     ecut=    80.00 Ry     beta= 0.40
     Davidson diagonalization with overlap
     ethr =  1.00E-02,  avg # of iterations =  2.0

     negative rho (up, down):  5.578E-06 0.000E+00

     total cpu time spent up to now is      145.7 secs

     total energy              =   -1035.59440176 Ry
     Harris-Foulkes estimate   =   -1038.25549600 Ry
     estimated scf accuracy    <       9.36790207 Ry

     iteration # 36     ecut=    80.00 Ry     beta= 0.40
     Davidson diagonalization with overlap
     ethr =  1.00E-02,  avg # of iterations =  1.0

     negative rho (up, down):  1.744E-06 0.000E+00

     total cpu time spent up to now is      148.8 secs

     total energy              =   -1037.96842176 Ry
     Harris-Foulkes estimate   =   -1040.57736321 Ry
     estimated scf accuracy    <      23.46118218 Ry

     iteration # 37     ecut=    80.00 Ry     beta= 0.40
     Davidson diagonalization with overlap
     ethr =  1.00E-02,  avg # of iterations =  1.0

     negative rho (up, down):  1.441E-07 0.000E+00

     total cpu time spent up to now is      152.0 secs

     total energy              =   -1036.20773613 Ry
     Harris-Foulkes estimate   =   -1038.43816079 Ry
     estimated scf accuracy    <      10.47731921 Ry

     iteration # 38     ecut=    80.00 Ry     beta= 0.40
     Davidson diagonalization with overlap
     ethr =  1.00E-02,  avg # of iterations =  1.0

     total cpu time spent up to now is      155.1 secs

     total energy              =   -1036.69372619 Ry
     Harris-Foulkes estimate   =   -1039.44440425 Ry
     estimated scf accuracy    <      13.61145579 Ry

     iteration # 39     ecut=    80.00 Ry     beta= 0.40
     Davidson diagonalization with overlap
     ethr =  1.00E-02,  avg # of iterations =  1.0

     total cpu time spent up to now is      158.2 secs

     total energy              =   -1038.87582055 Ry
     Harris-Foulkes estimate   =   -1038.60720739 Ry
     estimated scf accuracy    <      10.58249238 Ry

     iteration # 40     ecut=    80.00 Ry     beta= 0.40
     Davidson diagonalization with overlap
     ethr =  1.00E-02,  avg # of iterations =  1.0

     total cpu time spent up to now is      161.4 secs

     total energy              =   -1038.95870828 Ry
     Harris-Foulkes estimate   =   -1038.87787130 Ry
     estimated scf accuracy    <      10.94241971 Ry

     iteration # 41     ecut=    80.00 Ry     beta= 0.40
     Davidson diagonalization with overlap
     ethr =  1.00E-02,  avg # of iterations =  1.0

     total cpu time spent up to now is      164.3 secs

     total energy              =   -1038.72891889 Ry
     Harris-Foulkes estimate   =   -1038.95914090 Ry
     estimated scf accuracy    <      11.06179327 Ry

     iteration # 42     ecut=    80.00 Ry     beta= 0.40
     Davidson diagonalization with overlap
     ethr =  1.00E-02,  avg # of iterations =  1.0

     negative rho (up, down):  2.776E-07 0.000E+00

     total cpu time spent up to now is      167.4 secs

     total energy              =   -1039.91744403 Ry
     Harris-Foulkes estimate   =   -1038.72949911 Ry
     estimated scf accuracy    <      10.78603123 Ry

     iteration # 43     ecut=    80.00 Ry     beta= 0.40
     Davidson diagonalization with overlap
     ethr =  1.00E-02,  avg # of iterations =  1.0

     negative rho (up, down):  7.550E-03 0.000E+00

     total cpu time spent up to now is      170.6 secs

     total energy              =   -1034.04191962 Ry
     Harris-Foulkes estimate   =   -1040.04770918 Ry
     estimated scf accuracy    <      22.81250307 Ry

     iteration # 44     ecut=    80.00 Ry     beta= 0.40
     Davidson diagonalization with overlap
     ethr =  1.00E-02,  avg # of iterations =  1.0

     negative rho (up, down):  1.318E-04 0.000E+00

     total cpu time spent up to now is      173.8 secs

     total energy              =   -1040.99369595 Ry
     Harris-Foulkes estimate   =   -1040.09188951 Ry
     estimated scf accuracy    <      11.51378113 Ry

     iteration # 45     ecut=    80.00 Ry     beta= 0.40
     Davidson diagonalization with overlap
     ethr =  1.00E-02,  avg # of iterations =  1.0

     negative rho (up, down):  7.904E-05 0.000E+00

     total cpu time spent up to now is      177.1 secs

     total energy              =   -1036.84162331 Ry
     Harris-Foulkes estimate   =   -1041.22029481 Ry
     estimated scf accuracy    <      17.28998810 Ry

     iteration # 46     ecut=    80.00 Ry     beta= 0.40
     Davidson diagonalization with overlap
     ethr =  1.00E-02,  avg # of iterations =  1.0

     negative rho (up, down):  2.205E-06 0.000E+00

     total cpu time spent up to now is      180.1 secs

     total energy              =   -1036.18597039 Ry
     Harris-Foulkes estimate   =   -1038.63379490 Ry
     estimated scf accuracy    <      10.62344779 Ry

     iteration # 47     ecut=    80.00 Ry     beta= 0.40
     Davidson diagonalization with overlap
     ethr =  1.00E-02,  avg # of iterations =  1.0

     negative rho (up, down):  1.324E-06 0.000E+00

     total cpu time spent up to now is      183.3 secs

     total energy              =   -1038.48043257 Ry
     Harris-Foulkes estimate   =   -1039.40734763 Ry
     estimated scf accuracy    <      10.45301470 Ry

     iteration # 48     ecut=    80.00 Ry     beta= 0.40
     Davidson diagonalization with overlap
     ethr =  1.00E-02,  avg # of iterations =  1.0

     negative rho (up, down):  1.046E-05 0.000E+00

     total cpu time spent up to now is      186.5 secs

     total energy              =   -1036.86319744 Ry
     Harris-Foulkes estimate   =   -1038.49835391 Ry
     estimated scf accuracy    <       9.67032598 Ry

     iteration # 49     ecut=    80.00 Ry     beta= 0.40
     Davidson diagonalization with overlap
     ethr =  1.00E-02,  avg # of iterations =  1.0

     negative rho (up, down):  6.546E-06 0.000E+00

     total cpu time spent up to now is      189.6 secs

     total energy              =   -1036.74060370 Ry
     Harris-Foulkes estimate   =   -1038.76320245 Ry
     estimated scf accuracy    <      10.78636059 Ry

     iteration # 50     ecut=    80.00 Ry     beta= 0.40
     Davidson diagonalization with overlap
     ethr =  1.00E-02,  avg # of iterations =  1.0

     negative rho (up, down):  5.361E-06 0.000E+00

     total cpu time spent up to now is      192.8 secs

     total energy              =   -1038.71342088 Ry
     Harris-Foulkes estimate   =   -1038.72555047 Ry
     estimated scf accuracy    <       9.72965633 Ry

     iteration # 51     ecut=    80.00 Ry     beta= 0.40
     Davidson diagonalization with overlap
     ethr =  1.00E-02,  avg # of iterations =  1.0

     negative rho (up, down):  1.071E-05 0.000E+00

     total cpu time spent up to now is      196.0 secs

     total energy              =   -1038.31183702 Ry
     Harris-Foulkes estimate   =   -1038.71450226 Ry
     estimated scf accuracy    <       9.71943900 Ry

     iteration # 52     ecut=    80.00 Ry     beta= 0.40
     Davidson diagonalization with overlap
     ethr =  1.00E-02,  avg # of iterations =  1.0

     negative rho (up, down):  1.135E-05 0.000E+00

     total cpu time spent up to now is      199.1 secs

     total energy              =   -1037.70705604 Ry
     Harris-Foulkes estimate   =   -1038.31255615 Ry
     estimated scf accuracy    <       9.30331630 Ry

     iteration # 53     ecut=    80.00 Ry     beta= 0.40
     Davidson diagonalization with overlap
     ethr =  1.00E-02,  avg # of iterations =  1.0

     negative rho (up, down):  1.106E-05 0.000E+00

     total cpu time spent up to now is      202.3 secs

     total energy              =   -1038.02524309 Ry
     Harris-Foulkes estimate   =   -1038.01774010 Ry
     estimated scf accuracy    <       1.58330383 Ry

     iteration # 54     ecut=    80.00 Ry     beta= 0.40
     Davidson diagonalization with overlap
     ethr =  1.00E-02,  avg # of iterations =  1.0

     negative rho (up, down):  1.131E-05 0.000E+00

     total cpu time spent up to now is      205.4 secs

     total energy              =   -1038.02023622 Ry
     Harris-Foulkes estimate   =   -1038.02541171 Ry
     estimated scf accuracy    <       1.60650252 Ry

     iteration # 55     ecut=    80.00 Ry     beta= 0.40
     Davidson diagonalization with overlap
     ethr =  1.00E-02,  avg # of iterations =  1.0

     negative rho (up, down):  1.183E-05 0.000E+00

     total cpu time spent up to now is      208.5 secs

     total energy              =   -1038.02291138 Ry
     Harris-Foulkes estimate   =   -1038.02030646 Ry
     estimated scf accuracy    <       1.59275935 Ry

     iteration # 56     ecut=    80.00 Ry     beta= 0.40
     Davidson diagonalization with overlap
     ethr =  1.00E-02,  avg # of iterations =  1.0

     negative rho (up, down):  1.035E-05 0.000E+00

     total cpu time spent up to now is      211.5 secs

     total energy              =   -1038.00845917 Ry
     Harris-Foulkes estimate   =   -1038.02294570 Ry
     estimated scf accuracy    <       1.59388839 Ry

     iteration # 57     ecut=    80.00 Ry     beta= 0.40
     Davidson diagonalization with overlap
     ethr =  1.00E-02,  avg # of iterations =  1.0

     negative rho (up, down):  1.844E-05 0.000E+00

     total cpu time spent up to now is      214.7 secs

     total energy              =   -1037.97765438 Ry
     Harris-Foulkes estimate   =   -1038.00855641 Ry
     estimated scf accuracy    <       1.55385541 Ry

     iteration # 58     ecut=    80.00 Ry     beta= 0.40
     Davidson diagonalization with overlap
     ethr =  1.00E-02,  avg # of iterations =  1.0

     negative rho (up, down):  7.366E-04 0.000E+00

     total cpu time spent up to now is      218.1 secs

     total energy              =   -1037.92030327 Ry
     Harris-Foulkes estimate   =   -1037.97983259 Ry
     estimated scf accuracy    <       1.37172118 Ry

     iteration # 59     ecut=    80.00 Ry     beta= 0.40
     Davidson diagonalization with overlap
     ethr =  1.00E-02,  avg # of iterations =  1.0

     negative rho (up, down):  3.610E-05 0.000E+00

     total cpu time spent up to now is      221.3 secs

     total energy              =   -1037.82243367 Ry
     Harris-Foulkes estimate   =   -1038.54424144 Ry
     estimated scf accuracy    <      10.54061175 Ry

     iteration # 60     ecut=    80.00 Ry     beta= 0.40
     Davidson diagonalization with overlap
     ethr =  1.00E-02,  avg # of iterations =  1.0

     negative rho (up, down):  3.699E-05 0.000E+00

     total cpu time spent up to now is      224.4 secs

     total energy              =   -1037.87750260 Ry
     Harris-Foulkes estimate   =   -1037.89184296 Ry
     estimated scf accuracy    <       0.79206786 Ry

     iteration # 61     ecut=    80.00 Ry     beta= 0.40
     Davidson diagonalization with overlap
     ethr =  8.80E-03,  avg # of iterations =  1.0

     negative rho (up, down):  6.727E-05 0.000E+00

     total cpu time spent up to now is      227.6 secs

     total energy              =   -1038.23659024 Ry
     Harris-Foulkes estimate   =   -1037.87755864 Ry
     estimated scf accuracy    <       0.94602173 Ry

     iteration # 62     ecut=    80.00 Ry     beta= 0.40
     Davidson diagonalization with overlap
     ethr =  8.80E-03,  avg # of iterations =  1.0

     negative rho (up, down):  2.406E-05 0.000E+00

     total cpu time spent up to now is      230.7 secs

     total energy              =   -1037.83074349 Ry
     Harris-Foulkes estimate   =   -1038.50956058 Ry
     estimated scf accuracy    <      10.51420991 Ry

     iteration # 63     ecut=    80.00 Ry     beta= 0.40
     Davidson diagonalization with overlap
     ethr =  8.80E-03,  avg # of iterations =  1.0

     negative rho (up, down):  2.042E-05 0.000E+00

     total cpu time spent up to now is      233.9 secs

     total energy              =   -1037.83678385 Ry
     Harris-Foulkes estimate   =   -1038.09585947 Ry
     estimated scf accuracy    <       1.76741184 Ry

     iteration # 64     ecut=    80.00 Ry     beta= 0.40
     Davidson diagonalization with overlap
     ethr =  8.80E-03,  avg # of iterations =  1.0

     negative rho (up, down):  1.471E-05 0.000E+00

     total cpu time spent up to now is      237.1 secs

     total energy              =   -1037.68518270 Ry
     Harris-Foulkes estimate   =   -1038.01662042 Ry
     estimated scf accuracy    <       9.43810425 Ry

     iteration # 65     ecut=    80.00 Ry     beta= 0.40
     Davidson diagonalization with overlap
     ethr =  8.80E-03,  avg # of iterations =  1.0

     negative rho (up, down):  1.536E-05 0.000E+00

     total cpu time spent up to now is      240.3 secs

     total energy              =   -1037.88511497 Ry
     Harris-Foulkes estimate   =   -1037.92357104 Ry
     estimated scf accuracy    <       1.05978936 Ry

     iteration # 66     ecut=    80.00 Ry     beta= 0.40
     Davidson diagonalization with overlap
     ethr =  8.80E-03,  avg # of iterations =  1.0

     negative rho (up, down):  2.236E-05 0.000E+00

     total cpu time spent up to now is      243.4 secs

     total energy              =   -1037.88034707 Ry
     Harris-Foulkes estimate   =   -1037.89101774 Ry
     estimated scf accuracy    <       0.79356977 Ry

     iteration # 67     ecut=    80.00 Ry     beta= 0.40
     Davidson diagonalization with overlap
     ethr =  8.80E-03,  avg # of iterations =  1.0

     negative rho (up, down):  1.809E-05 0.000E+00

     total cpu time spent up to now is      246.5 secs

     total energy              =   -1037.88853609 Ry
     Harris-Foulkes estimate   =   -1037.89203281 Ry
     estimated scf accuracy    <       0.91108535 Ry

     iteration # 68     ecut=    80.00 Ry     beta= 0.40
     Davidson diagonalization with overlap
     ethr =  8.80E-03,  avg # of iterations =  1.0

     negative rho (up, down):  9.192E-06 0.000E+00

     total cpu time spent up to now is      249.6 secs

     total energy              =   -1037.85870996 Ry
     Harris-Foulkes estimate   =   -1037.89039177 Ry
     estimated scf accuracy    <       0.87206194 Ry

     iteration # 69     ecut=    80.00 Ry     beta= 0.40
     Davidson diagonalization with overlap
     ethr =  8.80E-03,  avg # of iterations =  1.0

     negative rho (up, down):  9.424E-06 0.000E+00

     total cpu time spent up to now is      252.9 secs

     total energy              =   -1037.89940844 Ry
     Harris-Foulkes estimate   =   -1037.90360060 Ry
     estimated scf accuracy    <       8.05543790 Ry

     iteration # 70     ecut=    80.00 Ry     beta= 0.40
     Davidson diagonalization with overlap
     ethr =  8.80E-03,  avg # of iterations =  1.0

     negative rho (up, down):  1.313E-05 0.000E+00

     total cpu time spent up to now is      256.2 secs

     total energy              =   -1037.75629193 Ry
     Harris-Foulkes estimate   =   -1037.90017266 Ry
     estimated scf accuracy    <       7.00471358 Ry

     iteration # 71     ecut=    80.00 Ry     beta= 0.40
     Davidson diagonalization with overlap
     ethr =  8.80E-03,  avg # of iterations =  1.0

     negative rho (up, down):  1.277E-05 0.000E+00

     total cpu time spent up to now is      259.3 secs

     total energy              =   -1037.88898142 Ry
     Harris-Foulkes estimate   =   -1037.89073935 Ry
     estimated scf accuracy    <       0.83699183 Ry

     iteration # 72     ecut=    80.00 Ry     beta= 0.40
     Davidson diagonalization with overlap
     ethr =  8.80E-03,  avg # of iterations =  1.0

     negative rho (up, down):  1.259E-05 0.000E+00

     total cpu time spent up to now is      262.4 secs

     total energy              =   -1037.89515488 Ry
     Harris-Foulkes estimate   =   -1037.88907902 Ry
     estimated scf accuracy    <       0.82166314 Ry

     iteration # 73     ecut=    80.00 Ry     beta= 0.40
     Davidson diagonalization with overlap
     ethr =  8.80E-03,  avg # of iterations =  1.0

     negative rho (up, down):  1.234E-05 0.000E+00

     total cpu time spent up to now is      265.6 secs

     total energy              =   -1037.91178657 Ry
     Harris-Foulkes estimate   =   -1037.89522068 Ry
     estimated scf accuracy    <       0.82916613 Ry

     iteration # 74     ecut=    80.00 Ry     beta= 0.40
     Davidson diagonalization with overlap
     ethr =  8.80E-03,  avg # of iterations =  1.0

     negative rho (up, down):  1.238E-05 0.000E+00

     total cpu time spent up to now is      268.7 secs

     total energy              =   -1037.92090579 Ry
     Harris-Foulkes estimate   =   -1037.91505373 Ry
     estimated scf accuracy    <       1.48996468 Ry

     iteration # 75     ecut=    80.00 Ry     beta= 0.40
     Davidson diagonalization with overlap
     ethr =  8.80E-03,  avg # of iterations =  1.0

     negative rho (up, down):  1.198E-05 0.000E+00

     total cpu time spent up to now is      271.8 secs

     total energy              =   -1037.86448229 Ry
     Harris-Foulkes estimate   =   -1037.92491798 Ry
     estimated scf accuracy    <       3.31864034 Ry

     iteration # 76     ecut=    80.00 Ry     beta= 0.40
     Davidson diagonalization with overlap
     ethr =  8.80E-03,  avg # of iterations =  1.0

     negative rho (up, down):  1.345E-05 0.000E+00

     total cpu time spent up to now is      275.0 secs

     total energy              =   -1037.91022931 Ry
     Harris-Foulkes estimate   =   -1037.88698599 Ry
     estimated scf accuracy    <       0.76737702 Ry

     iteration # 77     ecut=    80.00 Ry     beta= 0.40
     Davidson diagonalization with overlap
     ethr =  8.53E-03,  avg # of iterations =  1.0

     negative rho (up, down):  1.557E-05 0.000E+00

     total cpu time spent up to now is      278.1 secs

     total energy              =   -1037.93911925 Ry
     Harris-Foulkes estimate   =   -1037.91256691 Ry
     estimated scf accuracy    <       1.24450169 Ry

     iteration # 78     ecut=    80.00 Ry     beta= 0.40
     Davidson diagonalization with overlap
     ethr =  8.53E-03,  avg # of iterations =  1.0

     negative rho (up, down):  1.478E-05 0.000E+00

     total cpu time spent up to now is      281.4 secs

     total energy              =   -1037.96200631 Ry
     Harris-Foulkes estimate   =   -1037.94243196 Ry
     estimated scf accuracy    <       1.93653958 Ry

     iteration # 79     ecut=    80.00 Ry     beta= 0.40
     Davidson diagonalization with overlap
     ethr =  8.53E-03,  avg # of iterations =  1.0

     negative rho (up, down):  1.246E-05 0.000E+00

     total cpu time spent up to now is      284.7 secs

     total energy              =   -1037.46444663 Ry
     Harris-Foulkes estimate   =   -1037.98876637 Ry
     estimated scf accuracy    <       9.08954152 Ry

     iteration # 80     ecut=    80.00 Ry     beta= 0.40
     Davidson diagonalization with overlap
     ethr =  8.53E-03,  avg # of iterations =  1.0

     negative rho (up, down):  1.021E-05 0.000E+00

     total cpu time spent up to now is      287.8 secs

     total energy              =   -1038.06093132 Ry
     Harris-Foulkes estimate   =   -1038.01324797 Ry
     estimated scf accuracy    <      10.13827083 Ry

     iteration # 81     ecut=    80.00 Ry     beta= 0.40
     Davidson diagonalization with overlap
     ethr =  8.53E-03,  avg # of iterations =  1.0

     negative rho (up, down):  1.686E-05 0.000E+00

     total cpu time spent up to now is      291.0 secs

     total energy              =   -1037.60846761 Ry
     Harris-Foulkes estimate   =   -1038.09074039 Ry
     estimated scf accuracy    <      10.67245590 Ry

     iteration # 82     ecut=    80.00 Ry     beta= 0.40
     Davidson diagonalization with overlap
     ethr =  8.53E-03,  avg # of iterations =  1.0

     negative rho (up, down):  2.076E-05 0.000E+00

     total cpu time spent up to now is      294.1 secs

     total energy              =   -1037.99124716 Ry
     Harris-Foulkes estimate   =   -1037.93680615 Ry
     estimated scf accuracy    <       2.61071991 Ry

     iteration # 83     ecut=    80.00 Ry     beta= 0.40
     Davidson diagonalization with overlap
     ethr =  8.53E-03,  avg # of iterations =  1.0

     negative rho (up, down):  1.534E-05 0.000E+00

     total cpu time spent up to now is      297.3 secs

     total energy              =   -1037.92837096 Ry
     Harris-Foulkes estimate   =   -1038.02767547 Ry
     estimated scf accuracy    <      10.24964259 Ry

     iteration # 84     ecut=    80.00 Ry     beta= 0.40
     Davidson diagonalization with overlap
     ethr =  8.53E-03,  avg # of iterations =  1.0

     negative rho (up, down):  1.055E-05 0.000E+00

     total cpu time spent up to now is      300.4 secs

     total energy              =   -1037.90418529 Ry
     Harris-Foulkes estimate   =   -1038.00478646 Ry
     estimated scf accuracy    <       1.42073507 Ry

     iteration # 85     ecut=    80.00 Ry     beta= 0.40
     Davidson diagonalization with overlap
     ethr =  8.53E-03,  avg # of iterations =  1.0

     negative rho (up, down):  8.807E-06 0.000E+00

     total cpu time spent up to now is      303.7 secs

     total energy              =   -1037.84734188 Ry
     Harris-Foulkes estimate   =   -1037.90542975 Ry
     estimated scf accuracy    <       1.50159236 Ry

     iteration # 86     ecut=    80.00 Ry     beta= 0.40
     Davidson diagonalization with overlap
     ethr =  8.53E-03,  avg # of iterations =  1.0

     negative rho (up, down):  1.314E-05 0.000E+00

     total cpu time spent up to now is      306.8 secs

     total energy              =   -1037.63750929 Ry
     Harris-Foulkes estimate   =   -1038.04734704 Ry
     estimated scf accuracy    <       9.40644275 Ry

     iteration # 87     ecut=    80.00 Ry     beta= 0.40
     Davidson diagonalization with overlap
     ethr =  8.53E-03,  avg # of iterations =  1.0

     negative rho (up, down):  1.108E-05 0.000E+00

     total cpu time spent up to now is      309.9 secs

     total energy              =   -1037.92014642 Ry
     Harris-Foulkes estimate   =   -1037.96519304 Ry
     estimated scf accuracy    <       1.30131075 Ry

     iteration # 88     ecut=    80.00 Ry     beta= 0.40
     Davidson diagonalization with overlap
     ethr =  8.53E-03,  avg # of iterations =  1.0

     negative rho (up, down):  1.000E-05 0.000E+00

     total cpu time spent up to now is      313.0 secs

     total energy              =   -1037.90017925 Ry
     Harris-Foulkes estimate   =   -1037.92003398 Ry
     estimated scf accuracy    <       1.28646275 Ry

     iteration # 89     ecut=    80.00 Ry     beta= 0.40
     Davidson diagonalization with overlap
     ethr =  8.53E-03,  avg # of iterations =  1.0

     negative rho (up, down):  1.155E-05 0.000E+00

     total cpu time spent up to now is      316.1 secs

     total energy              =   -1037.85044552 Ry
     Harris-Foulkes estimate   =   -1037.92957287 Ry
     estimated scf accuracy    <       4.31301807 Ry

     iteration # 90     ecut=    80.00 Ry     beta= 0.40
     Davidson diagonalization with overlap
     ethr =  8.53E-03,  avg # of iterations =  1.0

     negative rho (up, down):  1.343E-05 0.000E+00

     total cpu time spent up to now is      319.3 secs

     total energy              =   -1037.96439448 Ry
     Harris-Foulkes estimate   =   -1037.93052761 Ry
     estimated scf accuracy    <       1.48177533 Ry

     iteration # 91     ecut=    80.00 Ry     beta= 0.40
     Davidson diagonalization with overlap
     ethr =  8.53E-03,  avg # of iterations =  1.0

     negative rho (up, down):  1.508E-05 0.000E+00

     total cpu time spent up to now is      322.6 secs

     total energy              =   -1037.97300430 Ry
     Harris-Foulkes estimate   =   -1037.96381224 Ry
     estimated scf accuracy    <       1.42523569 Ry

     iteration # 92     ecut=    80.00 Ry     beta= 0.40
     Davidson diagonalization with overlap
     ethr =  8.53E-03,  avg # of iterations =  1.0

     negative rho (up, down):  1.812E-05 0.000E+00

     total cpu time spent up to now is      325.8 secs

     total energy              =   -1038.14094467 Ry
     Harris-Foulkes estimate   =   -1037.99240874 Ry
     estimated scf accuracy    <       4.74829058 Ry

     iteration # 93     ecut=    80.00 Ry     beta= 0.40
     Davidson diagonalization with overlap
     ethr =  8.53E-03,  avg # of iterations =  1.0

     negative rho (up, down):  1.498E-05 0.000E+00

     total cpu time spent up to now is      328.9 secs

     total energy              =   -1037.99912884 Ry
     Harris-Foulkes estimate   =   -1038.20023764 Ry
     estimated scf accuracy    <      10.12428809 Ry

     iteration # 94     ecut=    80.00 Ry     beta= 0.40
     Davidson diagonalization with overlap
     ethr =  8.53E-03,  avg # of iterations =  1.0

     negative rho (up, down):  1.508E-05 0.000E+00

     total cpu time spent up to now is      332.0 secs

     total energy              =   -1038.03086130 Ry
     Harris-Foulkes estimate   =   -1038.02510179 Ry
     estimated scf accuracy    <       2.30159125 Ry

     iteration # 95     ecut=    80.00 Ry     beta= 0.40
     Davidson diagonalization with overlap
     ethr =  8.53E-03,  avg # of iterations =  1.0

     negative rho (up, down):  1.574E-05 0.000E+00

     total cpu time spent up to now is      335.2 secs

     total energy              =   -1038.03588986 Ry
     Harris-Foulkes estimate   =   -1038.05163366 Ry
     estimated scf accuracy    <       8.50683439 Ry

     iteration # 96     ecut=    80.00 Ry     beta= 0.40
     Davidson diagonalization with overlap
     ethr =  8.53E-03,  avg # of iterations =  1.0

     negative rho (up, down):  1.809E-05 0.000E+00

     total cpu time spent up to now is      338.4 secs

     total energy              =   -1038.17496595 Ry
     Harris-Foulkes estimate   =   -1038.06264061 Ry
     estimated scf accuracy    <       2.01591232 Ry

     iteration # 97     ecut=    80.00 Ry     beta= 0.40
     Davidson diagonalization with overlap
     ethr =  8.53E-03,  avg # of iterations =  1.0

     negative rho (up, down):  1.557E-05 0.000E+00

     total cpu time spent up to now is      341.5 secs

     total energy              =   -1037.98390661 Ry
     Harris-Foulkes estimate   =   -1038.18802182 Ry
     estimated scf accuracy    <       5.90275518 Ry

     iteration # 98     ecut=    80.00 Ry     beta= 0.40
     Davidson diagonalization with overlap
     ethr =  8.53E-03,  avg # of iterations =  1.0

     negative rho (up, down):  3.874E-05 0.000E+00

     total cpu time spent up to now is      344.6 secs

     total energy              =   -1037.40296264 Ry
     Harris-Foulkes estimate   =   -1038.05731688 Ry
     estimated scf accuracy    <       1.62685332 Ry

     iteration # 99     ecut=    80.00 Ry     beta= 0.40
     Davidson diagonalization with overlap
     ethr =  8.53E-03,  avg # of iterations =  1.0

     negative rho (up, down):  1.475E-05 0.000E+00

     total cpu time spent up to now is      347.8 secs

     total energy              =   -1038.03974999 Ry
     Harris-Foulkes estimate   =   -1040.52186280 Ry
     estimated scf accuracy    <      13.71153048 Ry

     iteration #100     ecut=    80.00 Ry     beta= 0.40
     Davidson diagonalization with overlap
     ethr =  8.53E-03,  avg # of iterations =  1.0

     negative rho (up, down):  1.259E-05 0.000E+00

     total cpu time spent up to now is      351.0 secs

     total energy              =   -1037.86998125 Ry
     Harris-Foulkes estimate   =   -1038.06176184 Ry
     estimated scf accuracy    <      12.54283028 Ry

     iteration #101     ecut=    80.00 Ry     beta= 0.40
     Davidson diagonalization with overlap
     ethr =  8.53E-03,  avg # of iterations =  1.0

     negative rho (up, down):  1.034E-05 0.000E+00

     total cpu time spent up to now is      354.2 secs

     total energy              =   -1037.93798285 Ry
     Harris-Foulkes estimate   =   -1037.88468339 Ry
     estimated scf accuracy    <       1.89785451 Ry

     iteration #102     ecut=    80.00 Ry     beta= 0.40
     Davidson diagonalization with overlap
     ethr =  8.53E-03,  avg # of iterations =  1.0

     negative rho (up, down):  9.608E-06 0.000E+00

     total cpu time spent up to now is      357.2 secs

     total energy              =   -1038.05313489 Ry
     Harris-Foulkes estimate   =   -1037.99887282 Ry
     estimated scf accuracy    <      13.13003874 Ry

     iteration #103     ecut=    80.00 Ry     beta= 0.40
     Davidson diagonalization with overlap
     ethr =  8.53E-03,  avg # of iterations =  1.0

     negative rho (up, down):  1.022E-05 0.000E+00

     total cpu time spent up to now is      360.3 secs

     total energy              =   -1037.88058202 Ry
     Harris-Foulkes estimate   =   -1038.05348926 Ry
     estimated scf accuracy    <      12.84864348 Ry

     iteration #104     ecut=    80.00 Ry     beta= 0.40
     Davidson diagonalization with overlap
     ethr =  8.53E-03,  avg # of iterations =  1.0

     negative rho (up, down):  1.101E-05 0.000E+00

     total cpu time spent up to now is      363.5 secs

     total energy              =   -1037.67600077 Ry
     Harris-Foulkes estimate   =   -1037.89017102 Ry
     estimated scf accuracy    <       4.92751113 Ry

     iteration #105     ecut=    80.00 Ry     beta= 0.40
     Davidson diagonalization with overlap
     ethr =  8.53E-03,  avg # of iterations =  1.0

     negative rho (up, down):  1.116E-05 0.000E+00

     total cpu time spent up to now is      366.8 secs

     total energy              =   -1037.83301908 Ry
     Harris-Foulkes estimate   =   -1038.13748766 Ry
     estimated scf accuracy    <      10.05214384 Ry

     iteration #106     ecut=    80.00 Ry     beta= 0.40
     Davidson diagonalization with overlap
     ethr =  8.53E-03,  avg # of iterations =  1.0

     negative rho (up, down):  1.296E-05 0.000E+00

     total cpu time spent up to now is      370.1 secs

     total energy              =   -1037.93445839 Ry
     Harris-Foulkes estimate   =   -1037.89330168 Ry
     estimated scf accuracy    <       0.52771700 Ry

     iteration #107     ecut=    80.00 Ry     beta= 0.40
     Davidson diagonalization with overlap
     ethr =  5.86E-03,  avg # of iterations =  1.0

     negative rho (up, down):  1.032E-05 0.000E+00

     total cpu time spent up to now is      373.2 secs

     total energy              =   -1038.11966061 Ry
     Harris-Foulkes estimate   =   -1038.18116405 Ry
     estimated scf accuracy    <      10.09782722 Ry

     iteration #108     ecut=    80.00 Ry     beta= 0.40
     Davidson diagonalization with overlap
     ethr =  5.86E-03,  avg # of iterations =  1.0

     negative rho (up, down):  8.719E-06 0.000E+00

     total cpu time spent up to now is      376.3 secs

     total energy              =   -1037.88526794 Ry
     Harris-Foulkes estimate   =   -1038.11988912 Ry
     estimated scf accuracy    <      10.03184858 Ry

     iteration #109     ecut=    80.00 Ry     beta= 0.40
     Davidson diagonalization with overlap
     ethr =  5.86E-03,  avg # of iterations =  1.0

     negative rho (up, down):  1.088E-05 0.000E+00

     total cpu time spent up to now is      379.5 secs

     total energy              =   -1037.85670313 Ry
     Harris-Foulkes estimate   =   -1037.90888403 Ry
     estimated scf accuracy    <       1.84202576 Ry

     iteration #110     ecut=    80.00 Ry     beta= 0.40
     Davidson diagonalization with overlap
     ethr =  5.86E-03,  avg # of iterations =  1.0

     negative rho (up, down):  1.724E-05 0.000E+00

     total cpu time spent up to now is      382.5 secs

     total energy              =   -1037.06136830 Ry
     Harris-Foulkes estimate   =   -1037.98039996 Ry
     estimated scf accuracy    <      15.06108989 Ry

     iteration #111     ecut=    80.00 Ry     beta= 0.40
     Davidson diagonalization with overlap
     ethr =  5.86E-03,  avg # of iterations =  1.0

     negative rho (up, down):  1.854E-05 0.000E+00

     total cpu time spent up to now is      385.6 secs

     total energy              =   -1038.34009985 Ry
     Harris-Foulkes estimate   =   -1038.37059694 Ry
     estimated scf accuracy    <      10.32856854 Ry

     iteration #112     ecut=    80.00 Ry     beta= 0.40
     Davidson diagonalization with overlap
     ethr =  5.86E-03,  avg # of iterations =  1.0

     negative rho (up, down):  1.772E-05 0.000E+00

     total cpu time spent up to now is      388.7 secs

     total energy              =   -1038.26539792 Ry
     Harris-Foulkes estimate   =   -1038.34026692 Ry
     estimated scf accuracy    <      10.29710865 Ry

     iteration #113     ecut=    80.00 Ry     beta= 0.40
     Davidson diagonalization with overlap
     ethr =  5.86E-03,  avg # of iterations =  1.0

     negative rho (up, down):  1.334E-05 0.000E+00

     total cpu time spent up to now is      391.9 secs

     total energy              =   -1037.81318881 Ry
     Harris-Foulkes estimate   =   -1038.26649933 Ry
     estimated scf accuracy    <      10.21904938 Ry

     iteration #114     ecut=    80.00 Ry     beta= 0.40
     Davidson diagonalization with overlap
     ethr =  5.86E-03,  avg # of iterations =  1.0

     negative rho (up, down):  8.962E-06 0.000E+00

     total cpu time spent up to now is      395.2 secs

     total energy              =   -1039.27470275 Ry
     Harris-Foulkes estimate   =   -1038.52394360 Ry
     estimated scf accuracy    <      15.97931324 Ry

     iteration #115     ecut=    80.00 Ry     beta= 0.40
     Davidson diagonalization with overlap
     ethr =  5.86E-03,  avg # of iterations =  1.0

     negative rho (up, down):  1.097E-05 0.000E+00

     total cpu time spent up to now is      398.4 secs

     total energy              =   -1039.32536763 Ry
     Harris-Foulkes estimate   =   -1039.28106488 Ry
     estimated scf accuracy    <      17.13100561 Ry

     iteration #116     ecut=    80.00 Ry     beta= 0.40
     Davidson diagonalization with overlap
     ethr =  5.86E-03,  avg # of iterations =  1.0

     negative rho (up, down):  1.079E-05 0.000E+00

     total cpu time spent up to now is      401.5 secs

     total energy              =   -1039.52963772 Ry
     Harris-Foulkes estimate   =   -1039.32748469 Ry
     estimated scf accuracy    <      17.11458544 Ry

     iteration #117     ecut=    80.00 Ry     beta= 0.40
     Davidson diagonalization with overlap
     ethr =  5.86E-03,  avg # of iterations =  1.0

     negative rho (up, down):  3.781E-04 0.000E+00

     total cpu time spent up to now is      404.7 secs

     total energy              =   -1039.33037138 Ry
     Harris-Foulkes estimate   =   -1039.53096927 Ry
     estimated scf accuracy    <      17.29939802 Ry

     iteration #118     ecut=    80.00 Ry     beta= 0.40
     Davidson diagonalization with overlap
     ethr =  5.86E-03,  avg # of iterations =  1.0

     negative rho (up, down):  5.209E-04 0.000E+00

     total cpu time spent up to now is      407.9 secs

     total energy              =   -1026.94184020 Ry
     Harris-Foulkes estimate   =   -1039.33124930 Ry
     estimated scf accuracy    <      17.01970779 Ry

     iteration #119     ecut=    80.00 Ry     beta= 0.40
     Davidson diagonalization with overlap

 %%%%%%%%%%%%%%%%%%%%%%%%%%%%%%%%%%%%%%%%%%%%%%%%%%%%%%%%%%%%%%%%%%%%%%%%%%%%%%
     Error in routine cdiaghg (65):
     S matrix not positive definite
 %%%%%%%%%%%%%%%%%%%%%%%%%%%%%%%%%%%%%%%%%%%%%%%%%%%%%%%%%%%%%%%%%%%%%%%%%%%%%%

     stopping ...
--------------------------------------------------------------------------
MPI_ABORT was invoked on rank 0 in communicator MPI_COMM_WORLD 
with errorcode 1.

NOTE: invoking MPI_ABORT causes Open MPI to kill all MPI processes.
You may or may not see output from other processes, depending on
exactly when Open MPI kills them.
--------------------------------------------------------------------------
