
     Program PWSCF v.6.3MaX starts on 23Oct2018 at 12:34:27 

     This program is part of the open-source Quantum ESPRESSO suite
     for quantum simulation of materials; please cite
         "P. Giannozzi et al., J. Phys.:Condens. Matter 21 395502 (2009);
         "P. Giannozzi et al., J. Phys.:Condens. Matter 29 465901 (2017);
          URL http://www.quantum-espresso.org", 
     in publications or presentations arising from this work. More details at
     http://www.quantum-espresso.org/quote

     Parallel version (MPI), running on     8 processors

     MPI processes distributed on     1 nodes
     R & G space division:  proc/nbgrp/npool/nimage =       8
     Waiting for input...
     Reading input from standard input
Warning: card &CELL ignored
Warning: card                CELL_DYNAMICS = 'BFGS' , ignored
Warning: card / ignored

     Current dimensions of program PWSCF are:
     Max number of different atomic species (ntypx) = 10
     Max number of k-points (npk) =  40000
     Max angular momentum in pseudopotentials (lmaxx) =  3
               file N.pbe-n-kjpaw_psl.1.0.0.UPF: wavefunction(s)  2S renormalized
               file Na.pbe-spnl-kjpaw_psl.1.0.0.UPF: wavefunction(s)  2P renormalized

     Subspace diagonalization in iterative solution of the eigenvalue problem:
     a serial algorithm will be used


     Parallelization info
     --------------------
     sticks:   dense  smooth     PW     G-vecs:    dense   smooth      PW
     Min         134     134     42                 2947     2947     501
     Max         135     135     43                 2950     2950     503
     Sum        1075    1075    337                23589    23589    4015



     bravais-lattice index     =            2
     lattice parameter (alat)  =      14.6200  a.u.
     unit-cell volume          =     781.2358 (a.u.)^3
     number of atoms/cell      =            3
     number of atomic types    =            3
     number of electrons       =         9.00
     number of Kohn-Sham states=            9
     kinetic-energy cutoff     =      37.0000  Ry
     charge density cutoff     =     148.0000  Ry
     convergence threshold     =      1.0E-09
     mixing beta               =       0.4000
     number of iterations used =            8  plain     mixing
     Exchange-correlation      = SLA PW PBX PBC ( 1  4  3  4 0 0)

     celldm(1)=  14.620000  celldm(2)=   0.000000  celldm(3)=   0.000000
     celldm(4)=   0.000000  celldm(5)=   0.000000  celldm(6)=   0.000000

     crystal axes: (cart. coord. in units of alat)
               a(1) = (  -0.500000   0.000000   0.500000 )  
               a(2) = (   0.000000   0.500000   0.500000 )  
               a(3) = (  -0.500000   0.500000   0.000000 )  

     reciprocal axes: (cart. coord. in units 2 pi/alat)
               b(1) = ( -1.000000 -1.000000  1.000000 )  
               b(2) = (  1.000000  1.000000  1.000000 )  
               b(3) = ( -1.000000  1.000000 -1.000000 )  


     PseudoPot. # 1 for N  read from file:
     ./../ps/N.pbe-n-kjpaw_psl.1.0.0.UPF
     MD5 check sum: 200139db3989ad6e773ddd42f12fc3a8
     Pseudo is Projector augmented-wave + core cor, Zval =  5.0
     Generated using "atomic" code by A. Dal Corso v.6.3
     Shape of augmentation charge: PSQ
     Using radial grid of 1085 points,  4 beta functions with: 
                l(1) =   0
                l(2) =   0
                l(3) =   1
                l(4) =   1
     Q(r) pseudized with 0 coefficients 


     PseudoPot. # 2 for Na read from file:
     ./../ps/Na.pbe-spnl-kjpaw_psl.1.0.0.UPF
     MD5 check sum: 09e782c158f17eb2240230c4112357ee
     Pseudo is Projector augmented-wave + core cor, Zval =  9.0
     Generated using "atomic" code by A. Dal Corso v.6.3
     Shape of augmentation charge: PSQ
     Using radial grid of 1121 points,  4 beta functions with: 
                l(1) =   0
                l(2) =   0
                l(3) =   1
                l(4) =   1
     Q(r) pseudized with 0 coefficients 


     PseudoPot. # 3 for Cs read from file:
     ./../ps/Cs.pbe-spnl-kjpaw_psl.1.0.0.UPF
     MD5 check sum: f98336d4a4407e24c1ab1e3bc36275e8
     Pseudo is Projector augmented-wave + core cor, Zval = -5.0
     Generated using "atomic" code by A. Dal Corso v.6.2.2
     Shape of augmentation charge: PSQ
     Using radial grid of 1251 points,  6 beta functions with: 
                l(1) =   0
                l(2) =   0
                l(3) =   1
                l(4) =   1
                l(5) =   2
                l(6) =   2
     Q(r) pseudized with 0 coefficients 


     atomic species   valence    mass     pseudopotential
        N              5.00    14.00670     N ( 1.00)
        Na             9.00    22.98977     Na( 1.00)
        Cs            -5.00   132.90545     Cs( 1.00)

     24 Sym. Ops. (no inversion) found



   Cartesian axes

     site n.     atom                  positions (alat units)
         1           N   tau(   1) = (   0.0000000   0.0000000   0.0000000  )
         2           Na  tau(   2) = (  -0.2500000   0.2500000   0.2500000  )
         3           Cs  tau(   3) = (  -0.7500000   0.7500000   0.7500000  )

     number of k points=   110  Methfessel-Paxton smearing, width (Ry)=  0.0200

     Number of k-points >= 100: set verbosity='high' to print them.

     Dense  grid:    23589 G-vectors     FFT dimensions: (  45,  45,  45)

     Estimated max dynamical RAM per process >      23.95 MB

     Estimated total dynamical RAM >     191.58 MB

     Check: negative/imaginary core charge=   -0.000018    0.000000

     Initial potential from superposition of free atoms

     starting charge   22.95298, renormalised to    9.00000
     Starting wfcs are   14 randomized atomic wfcs
     Checking if some PAW data can be deallocated... 

     total cpu time spent up to now is        3.1 secs

     Self-consistent Calculation

     iteration #  1     ecut=    37.00 Ry     beta= 0.40
     Davidson diagonalization with overlap
     ethr =  1.00E-02,  avg # of iterations = 11.6

     total cpu time spent up to now is        7.5 secs

     total energy              =    -718.40150652 Ry
     Harris-Foulkes estimate   =    -744.21998057 Ry
     estimated scf accuracy    <      44.24192721 Ry

     iteration #  2     ecut=    37.00 Ry     beta= 0.40
     Davidson diagonalization with overlap
     ethr =  1.00E-02,  avg # of iterations =  3.0

     total cpu time spent up to now is       10.3 secs

     total energy              =    -709.41813377 Ry
     Harris-Foulkes estimate   =    -719.72056325 Ry
     estimated scf accuracy    <      11.50648943 Ry

     iteration #  3     ecut=    37.00 Ry     beta= 0.40
     Davidson diagonalization with overlap
     ethr =  1.00E-02,  avg # of iterations =  9.8

     negative rho (up, down):  7.376E-02 0.000E+00

     total cpu time spent up to now is       15.3 secs

     total energy              =    -712.38468916 Ry
     Harris-Foulkes estimate   =    -713.29180409 Ry
     estimated scf accuracy    <       1.43965578 Ry

     iteration #  4     ecut=    37.00 Ry     beta= 0.40
     Davidson diagonalization with overlap
     ethr =  1.00E-02,  avg # of iterations =  2.8

     negative rho (up, down):  1.471E-01 0.000E+00

     total cpu time spent up to now is       17.5 secs

     total energy              =    -712.75580233 Ry
     Harris-Foulkes estimate   =    -712.79323822 Ry
     estimated scf accuracy    <       0.21720963 Ry

     iteration #  5     ecut=    37.00 Ry     beta= 0.40
     Davidson diagonalization with overlap
     ethr =  2.41E-03,  avg # of iterations =  4.3

     negative rho (up, down):  2.261E-01 0.000E+00

     total cpu time spent up to now is       20.1 secs

     total energy              =    -712.57713460 Ry
     Harris-Foulkes estimate   =    -712.96167142 Ry
     estimated scf accuracy    <       0.57973277 Ry

     iteration #  6     ecut=    37.00 Ry     beta= 0.40
     Davidson diagonalization with overlap
     ethr =  2.41E-03,  avg # of iterations =  2.0

     negative rho (up, down):  2.245E-01 0.000E+00

     total cpu time spent up to now is       22.3 secs

     total energy              =    -712.69797322 Ry
     Harris-Foulkes estimate   =    -712.69796927 Ry
     estimated scf accuracy    <       0.00003498 Ry

     iteration #  7     ecut=    37.00 Ry     beta= 0.40
     Davidson diagonalization with overlap
     c_bands:  1 eigenvalues not converged
     c_bands:  1 eigenvalues not converged
     ethr =  3.89E-07,  avg # of iterations = 13.8

     negative rho (up, down):  2.226E-01 0.000E+00

     total cpu time spent up to now is       28.5 secs

     total energy              =    -712.69915651 Ry
     Harris-Foulkes estimate   =    -712.69917184 Ry
     estimated scf accuracy    <       0.00005389 Ry

     iteration #  8     ecut=    37.00 Ry     beta= 0.40
     Davidson diagonalization with overlap
     ethr =  3.89E-07,  avg # of iterations =  2.0

     negative rho (up, down):  2.238E-01 0.000E+00

     total cpu time spent up to now is       30.5 secs

     total energy              =    -712.69915895 Ry
     Harris-Foulkes estimate   =    -712.69916488 Ry
     estimated scf accuracy    <       0.00001234 Ry

     iteration #  9     ecut=    37.00 Ry     beta= 0.40
     Davidson diagonalization with overlap
     ethr =  1.37E-07,  avg # of iterations =  1.0

     negative rho (up, down):  2.235E-01 0.000E+00

     total cpu time spent up to now is       32.2 secs

     total energy              =    -712.69915856 Ry
     Harris-Foulkes estimate   =    -712.69915940 Ry
     estimated scf accuracy    <       0.00000107 Ry

     iteration # 10     ecut=    37.00 Ry     beta= 0.40
     Davidson diagonalization with overlap
     ethr =  1.19E-08,  avg # of iterations =  3.0

     negative rho (up, down):  2.236E-01 0.000E+00

     total cpu time spent up to now is       34.4 secs

     total energy              =    -712.69915899 Ry
     Harris-Foulkes estimate   =    -712.69915905 Ry
     estimated scf accuracy    <       0.00000012 Ry

     iteration # 11     ecut=    37.00 Ry     beta= 0.40
     Davidson diagonalization with overlap
     ethr =  1.30E-09,  avg # of iterations =  2.1

     negative rho (up, down):  2.236E-01 0.000E+00

     total cpu time spent up to now is       36.5 secs

     total energy              =    -712.69915900 Ry
     Harris-Foulkes estimate   =    -712.69915901 Ry
     estimated scf accuracy    <       0.00000001 Ry

     iteration # 12     ecut=    37.00 Ry     beta= 0.40
     Davidson diagonalization with overlap
     ethr =  1.12E-10,  avg # of iterations =  3.1

     negative rho (up, down):  2.236E-01 0.000E+00

     total cpu time spent up to now is       38.9 secs

     total energy              =    -712.69915900 Ry
     Harris-Foulkes estimate   =    -712.69915901 Ry
     estimated scf accuracy    <          5.6E-09 Ry

     iteration # 13     ecut=    37.00 Ry     beta= 0.40
     Davidson diagonalization with overlap
     ethr =  6.18E-11,  avg # of iterations =  2.0

     negative rho (up, down):  2.236E-01 0.000E+00

     total cpu time spent up to now is       40.9 secs

     End of self-consistent calculation

     Number of k-points >= 100: set verbosity='high' to print the bands.

     the Fermi energy is  -323.7699 ev

!    total energy              =    -712.69915900 Ry
     Harris-Foulkes estimate   =    -712.69915900 Ry
     estimated scf accuracy    <          1.3E-10 Ry

     total all-electron energy =    -16167.784935 Ry

     The total energy is the sum of the following terms:

     one-electron contribution =    -316.62192620 Ry
     hartree contribution      =      54.59063772 Ry
     xc contribution           =     -28.91379523 Ry
     ewald contribution        =     -36.56760686 Ry
     one-center paw contrib.   =    -385.17782680 Ry
     smearing contrib. (-TS)   =      -0.00864163 Ry

     convergence has been achieved in  13 iterations

     negative rho (up, down):  2.236E-01 0.000E+00

     Forces acting on atoms (cartesian axes, Ry/au):

     atom    1 type  1   force =     0.00000000    0.00000000   -0.00000000
     atom    2 type  2   force =     0.00000000    0.00000000    0.00000000
     atom    3 type  3   force =     0.00000000    0.00000000    0.00000000

     Total force =     0.000000     Total SCF correction =     0.000000


     Computing stress (Cartesian axis) and pressure


     negative rho (up, down):  2.236E-01 0.000E+00
          total   stress  (Ry/bohr**3)                   (kbar)     P=********
  -0.14415588   0.00000000  -0.00000000     -21206.06      0.00     -0.00
   0.00000000  -0.14415588  -0.00000000          0.00 -21206.06     -0.00
  -0.00000000  -0.00000000  -0.14415588         -0.00     -0.00 -21206.06


     Writing output data file NNaCs.save/

     init_run     :      1.20s CPU      1.38s WALL (       1 calls)
     electrons    :     34.22s CPU     37.77s WALL (       1 calls)
     forces       :      0.28s CPU      0.30s WALL (       1 calls)
     stress       :      0.69s CPU      0.73s WALL (       1 calls)

     Called by init_run:
     wfcinit      :      0.87s CPU      0.92s WALL (       1 calls)
     potinit      :      0.07s CPU      0.15s WALL (       1 calls)
     hinit0       :      0.22s CPU      0.26s WALL (       1 calls)

     Called by electrons:
     c_bands      :     29.43s CPU     31.73s WALL (      13 calls)
     sum_band     :      3.65s CPU      4.00s WALL (      13 calls)
     v_of_rho     :      0.12s CPU      0.14s WALL (      14 calls)
     newd         :      0.35s CPU      0.38s WALL (      14 calls)
     PAW_pot      :      0.70s CPU      1.62s WALL (      14 calls)
     mix_rho      :      0.03s CPU      0.03s WALL (      13 calls)

     Called by c_bands:
     init_us_2    :      0.83s CPU      0.90s WALL (    3190 calls)
     cegterg      :     28.18s CPU     30.38s WALL (    1430 calls)

     Called by sum_band:
     sum_band:bec :      0.03s CPU      0.03s WALL (    1430 calls)
     addusdens    :      0.32s CPU      0.34s WALL (      13 calls)

     Called by *egterg:
     h_psi        :     21.40s CPU     23.07s WALL (    8193 calls)
     s_psi        :      1.30s CPU      1.39s WALL (    8193 calls)
     g_psi        :      0.07s CPU      0.08s WALL (    6653 calls)
     cdiaghg      :      1.65s CPU      1.77s WALL (    8083 calls)

     Called by h_psi:
     h_psi:pot    :     21.16s CPU     22.81s WALL (    8193 calls)
     h_psi:calbec :      1.93s CPU      2.12s WALL (    8193 calls)
     vloc_psi     :     17.74s CPU     19.08s WALL (    8193 calls)
     add_vuspsi   :      1.46s CPU      1.58s WALL (    8193 calls)

     General routines
     calbec       :      2.52s CPU      2.76s WALL (   10173 calls)
     fft          :      0.06s CPU      0.06s WALL (     180 calls)
     ffts         :      0.00s CPU      0.00s WALL (      13 calls)
     fftw         :     17.42s CPU     18.79s WALL (  104570 calls)

     Parallel routines
     fft_scatt_xy :      2.27s CPU      2.44s WALL (  104763 calls)
     fft_scatt_yz :      3.88s CPU      4.26s WALL (  104763 calls)

     PWSCF        :    38.11s CPU        42.03s WALL


   This run was terminated on:  12:35: 9  23Oct2018            

=------------------------------------------------------------------------------=
   JOB DONE.
=------------------------------------------------------------------------------=
