
     Program PWSCF v.6.3MaX starts on 24Oct2018 at  7:32:45 

     This program is part of the open-source Quantum ESPRESSO suite
     for quantum simulation of materials; please cite
         "P. Giannozzi et al., J. Phys.:Condens. Matter 21 395502 (2009);
         "P. Giannozzi et al., J. Phys.:Condens. Matter 29 465901 (2017);
          URL http://www.quantum-espresso.org", 
     in publications or presentations arising from this work. More details at
     http://www.quantum-espresso.org/quote

     Parallel version (MPI), running on     8 processors

     MPI processes distributed on     1 nodes
     R & G space division:  proc/nbgrp/npool/nimage =       8
     Waiting for input...
     Reading input from standard input
Warning: card &CELL ignored
Warning: card                CELL_DYNAMICS = 'BFGS' , ignored
Warning: card / ignored

     Current dimensions of program PWSCF are:
     Max number of different atomic species (ntypx) = 10
     Max number of k-points (npk) =  40000
     Max angular momentum in pseudopotentials (lmaxx) =  3
     Message from routine iosys:
     minimal I/O required, wf_collect reset to FALSE
               file N.pbe-n-kjpaw_psl.1.0.0.UPF: wavefunction(s)  2S renormalized
               file Na.pbe-spnl-kjpaw_psl.1.0.0.UPF: wavefunction(s)  2P renormalized

     Subspace diagonalization in iterative solution of the eigenvalue problem:
     a serial algorithm will be used


     Parallelization info
     --------------------
     sticks:   dense  smooth     PW     G-vecs:    dense   smooth      PW
     Min         141     141     43                 3116     3116     533
     Max         143     143     44                 3117     3117     536
     Sum        1135    1135    349                24933    24933    4279



     bravais-lattice index     =            2
     lattice parameter (alat)  =      10.1000  a.u.
     unit-cell volume          =     257.5752 (a.u.)^3
     number of atoms/cell      =            3
     number of atomic types    =            3
     number of electrons       =         9.00
     number of Kohn-Sham states=            9
     kinetic-energy cutoff     =      80.0000  Ry
     charge density cutoff     =     320.0000  Ry
     convergence threshold     =      1.0E-09
     mixing beta               =       0.4000
     number of iterations used =            8  plain     mixing
     Exchange-correlation      = SLA PW PBX PBC ( 1  4  3  4 0 0)

     celldm(1)=  10.100000  celldm(2)=   0.000000  celldm(3)=   0.000000
     celldm(4)=   0.000000  celldm(5)=   0.000000  celldm(6)=   0.000000

     crystal axes: (cart. coord. in units of alat)
               a(1) = (  -0.500000   0.000000   0.500000 )  
               a(2) = (   0.000000   0.500000   0.500000 )  
               a(3) = (  -0.500000   0.500000   0.000000 )  

     reciprocal axes: (cart. coord. in units 2 pi/alat)
               b(1) = ( -1.000000 -1.000000  1.000000 )  
               b(2) = (  1.000000  1.000000  1.000000 )  
               b(3) = ( -1.000000  1.000000 -1.000000 )  


     PseudoPot. # 1 for N  read from file:
     ./ps/N.pbe-n-kjpaw_psl.1.0.0.UPF
     MD5 check sum: 200139db3989ad6e773ddd42f12fc3a8
     Pseudo is Projector augmented-wave + core cor, Zval =  5.0
     Generated using "atomic" code by A. Dal Corso v.6.3
     Shape of augmentation charge: PSQ
     Using radial grid of 1085 points,  4 beta functions with: 
                l(1) =   0
                l(2) =   0
                l(3) =   1
                l(4) =   1
     Q(r) pseudized with 0 coefficients 


     PseudoPot. # 2 for Na read from file:
     ./ps/Na.pbe-spnl-kjpaw_psl.1.0.0.UPF
     MD5 check sum: 09e782c158f17eb2240230c4112357ee
     Pseudo is Projector augmented-wave + core cor, Zval =  9.0
     Generated using "atomic" code by A. Dal Corso v.6.3
     Shape of augmentation charge: PSQ
     Using radial grid of 1121 points,  4 beta functions with: 
                l(1) =   0
                l(2) =   0
                l(3) =   1
                l(4) =   1
     Q(r) pseudized with 0 coefficients 


     PseudoPot. # 3 for Cs read from file:
     ./ps/Cs.pbe-spnl-kjpaw_psl.1.0.0.UPF
     MD5 check sum: f98336d4a4407e24c1ab1e3bc36275e8
     Pseudo is Projector augmented-wave + core cor, Zval = -5.0
     Generated using "atomic" code by A. Dal Corso v.6.2.2
     Shape of augmentation charge: PSQ
     Using radial grid of 1251 points,  6 beta functions with: 
                l(1) =   0
                l(2) =   0
                l(3) =   1
                l(4) =   1
                l(5) =   2
                l(6) =   2
     Q(r) pseudized with 0 coefficients 


     atomic species   valence    mass     pseudopotential
        N              5.00    14.00670     N ( 1.00)
        Na             9.00    22.98977     Na( 1.00)
        Cs            -5.00   132.90545     Cs( 1.00)

     24 Sym. Ops. (no inversion) found



   Cartesian axes

     site n.     atom                  positions (alat units)
         1           N   tau(   1) = (   0.0000000   0.0000000   0.0000000  )
         2           Na  tau(   2) = (  -0.5000000   0.5000000   0.5000000  )
         3           Cs  tau(   3) = (  -0.7500000   0.7500000   0.7500000  )

     number of k points=   110  Methfessel-Paxton smearing, width (Ry)=  0.0200

     Number of k-points >= 100: set verbosity='high' to print them.

     Dense  grid:    24933 G-vectors     FFT dimensions: (  45,  45,  45)

     Estimated max dynamical RAM per process >      24.93 MB

     Estimated total dynamical RAM >     199.45 MB

     Check: negative/imaginary core charge=   -0.000002    0.000000

     Initial potential from superposition of free atoms

     starting charge   22.95298, renormalised to    9.00000
     Starting wfcs are   14 randomized atomic wfcs
     Checking if some PAW data can be deallocated... 

     total cpu time spent up to now is        4.8 secs

     Self-consistent Calculation

     iteration #  1     ecut=    80.00 Ry     beta= 0.40
     Davidson diagonalization with overlap
     ethr =  1.00E-02,  avg # of iterations = 11.1

     total cpu time spent up to now is       13.6 secs

     total energy              =   -1114.31131224 Ry
     Harris-Foulkes estimate   =   -1133.82592195 Ry
     estimated scf accuracy    <      33.90252255 Ry

     iteration #  2     ecut=    80.00 Ry     beta= 0.40
     Davidson diagonalization with overlap
     ethr =  1.00E-02,  avg # of iterations =  5.1

     total cpu time spent up to now is       19.4 secs

     total energy              =   -1112.00700586 Ry
     Harris-Foulkes estimate   =   -1116.52016009 Ry
     estimated scf accuracy    <       5.73368726 Ry

     iteration #  3     ecut=    80.00 Ry     beta= 0.40
     Davidson diagonalization with overlap
     ethr =  1.00E-02,  avg # of iterations =  5.4

     total cpu time spent up to now is       24.7 secs

     total energy              =   -1110.50564534 Ry
     Harris-Foulkes estimate   =   -1117.51807218 Ry
     estimated scf accuracy    <      35.65742177 Ry

     iteration #  4     ecut=    80.00 Ry     beta= 0.40
     Davidson diagonalization with overlap
     ethr =  1.00E-02,  avg # of iterations =  2.5

     total cpu time spent up to now is       28.9 secs

     total energy              =   -1114.09289700 Ry
     Harris-Foulkes estimate   =   -1114.11030765 Ry
     estimated scf accuracy    <       0.33460870 Ry

     iteration #  5     ecut=    80.00 Ry     beta= 0.40
     Davidson diagonalization with overlap
     ethr =  3.72E-03,  avg # of iterations =  4.0

     negative rho (up, down):  2.128E-05 0.000E+00

     total cpu time spent up to now is       33.7 secs

     total energy              =   -1113.67380884 Ry
     Harris-Foulkes estimate   =   -1115.42198512 Ry
     estimated scf accuracy    <       4.14972203 Ry

     iteration #  6     ecut=    80.00 Ry     beta= 0.40
     Davidson diagonalization with overlap
     ethr =  3.72E-03,  avg # of iterations =  3.0

     negative rho (up, down):  1.389E-05 0.000E+00

     total cpu time spent up to now is       38.0 secs

     total energy              =   -1113.98483139 Ry
     Harris-Foulkes estimate   =   -1113.98483832 Ry
     estimated scf accuracy    <       0.02295073 Ry

     iteration #  7     ecut=    80.00 Ry     beta= 0.40
     Davidson diagonalization with overlap
     ethr =  2.55E-04,  avg # of iterations =  4.4

     negative rho (up, down):  1.049E-05 0.000E+00

     total cpu time spent up to now is       42.4 secs

     total energy              =   -1113.98938689 Ry
     Harris-Foulkes estimate   =   -1113.98854734 Ry
     estimated scf accuracy    <       0.02602443 Ry

     iteration #  8     ecut=    80.00 Ry     beta= 0.40
     Davidson diagonalization with overlap
     ethr =  2.55E-04,  avg # of iterations =  1.0

     negative rho (up, down):  3.542E-06 0.000E+00

     total cpu time spent up to now is       46.2 secs

     total energy              =   -1113.98746119 Ry
     Harris-Foulkes estimate   =   -1113.99047452 Ry
     estimated scf accuracy    <       0.06028623 Ry

     iteration #  9     ecut=    80.00 Ry     beta= 0.40
     Davidson diagonalization with overlap
     ethr =  2.55E-04,  avg # of iterations =  2.0

     negative rho (up, down):  1.269E-04 0.000E+00

     total cpu time spent up to now is       50.8 secs

     total energy              =   -1113.96810651 Ry
     Harris-Foulkes estimate   =   -1113.98961414 Ry
     estimated scf accuracy    <       0.09723090 Ry

     iteration # 10     ecut=    80.00 Ry     beta= 0.40
     Davidson diagonalization with overlap
     ethr =  2.55E-04,  avg # of iterations =  1.0

     negative rho (up, down):  1.256E-04 0.000E+00

     total cpu time spent up to now is       54.8 secs

     total energy              =   -1113.98057727 Ry
     Harris-Foulkes estimate   =   -1113.98056079 Ry
     estimated scf accuracy    <       0.00180109 Ry

     iteration # 11     ecut=    80.00 Ry     beta= 0.40
     Davidson diagonalization with overlap
     ethr =  2.00E-05,  avg # of iterations =  2.9

     negative rho (up, down):  1.439E-04 0.000E+00

     total cpu time spent up to now is       59.3 secs

     total energy              =   -1113.98025627 Ry
     Harris-Foulkes estimate   =   -1113.98072042 Ry
     estimated scf accuracy    <       0.00168198 Ry

     iteration # 12     ecut=    80.00 Ry     beta= 0.40
     Davidson diagonalization with overlap
     ethr =  1.87E-05,  avg # of iterations =  1.8

     negative rho (up, down):  8.195E-05 0.000E+00

     total cpu time spent up to now is       62.8 secs

     total energy              =   -1113.98006836 Ry
     Harris-Foulkes estimate   =   -1113.98042394 Ry
     estimated scf accuracy    <       0.00083599 Ry

     iteration # 13     ecut=    80.00 Ry     beta= 0.40
     Davidson diagonalization with overlap
     ethr =  9.29E-06,  avg # of iterations =  3.8

     negative rho (up, down):  9.780E-05 0.000E+00

     total cpu time spent up to now is       67.5 secs

     total energy              =   -1113.98049716 Ry
     Harris-Foulkes estimate   =   -1113.98070478 Ry
     estimated scf accuracy    <       0.00149643 Ry

     iteration # 14     ecut=    80.00 Ry     beta= 0.40
     Davidson diagonalization with overlap
     ethr =  9.29E-06,  avg # of iterations =  1.0

     negative rho (up, down):  1.128E-04 0.000E+00

     total cpu time spent up to now is       70.8 secs

     total energy              =   -1113.98024843 Ry
     Harris-Foulkes estimate   =   -1113.98051917 Ry
     estimated scf accuracy    <       0.00102195 Ry

     iteration # 15     ecut=    80.00 Ry     beta= 0.40
     Davidson diagonalization with overlap
     ethr =  9.29E-06,  avg # of iterations =  1.0

     negative rho (up, down):  1.242E-04 0.000E+00

     total cpu time spent up to now is       74.1 secs

     total energy              =   -1113.98038065 Ry
     Harris-Foulkes estimate   =   -1113.98029133 Ry
     estimated scf accuracy    <       0.00038863 Ry

     iteration # 16     ecut=    80.00 Ry     beta= 0.40
     Davidson diagonalization with overlap
     ethr =  4.32E-06,  avg # of iterations =  3.0

     negative rho (up, down):  1.196E-04 0.000E+00

     total cpu time spent up to now is       78.9 secs

     total energy              =   -1113.98109885 Ry
     Harris-Foulkes estimate   =   -1113.98094757 Ry
     estimated scf accuracy    <       0.00166801 Ry

     iteration # 17     ecut=    80.00 Ry     beta= 0.40
     Davidson diagonalization with overlap
     ethr =  4.32E-06,  avg # of iterations =  1.0

     negative rho (up, down):  1.325E-04 0.000E+00

     total cpu time spent up to now is       82.1 secs

     total energy              =   -1113.97998221 Ry
     Harris-Foulkes estimate   =   -1113.98110899 Ry
     estimated scf accuracy    <       0.00212486 Ry

     iteration # 18     ecut=    80.00 Ry     beta= 0.40
     Davidson diagonalization with overlap
     ethr =  4.32E-06,  avg # of iterations =  2.0

     negative rho (up, down):  1.298E-04 0.000E+00

     total cpu time spent up to now is       86.1 secs

     total energy              =   -1113.98020532 Ry
     Harris-Foulkes estimate   =   -1113.98028503 Ry
     estimated scf accuracy    <       0.00012060 Ry

     iteration # 19     ecut=    80.00 Ry     beta= 0.40
     Davidson diagonalization with overlap
     ethr =  1.34E-06,  avg # of iterations =  2.0

     negative rho (up, down):  9.223E-05 0.000E+00

     total cpu time spent up to now is       89.9 secs

     total energy              =   -1113.98023818 Ry
     Harris-Foulkes estimate   =   -1113.98023676 Ry
     estimated scf accuracy    <       0.00003969 Ry

     iteration # 20     ecut=    80.00 Ry     beta= 0.40
     Davidson diagonalization with overlap
     ethr =  4.41E-07,  avg # of iterations =  2.5

     negative rho (up, down):  9.424E-05 0.000E+00

     total cpu time spent up to now is       93.3 secs

     total energy              =   -1113.98023016 Ry
     Harris-Foulkes estimate   =   -1113.98024440 Ry
     estimated scf accuracy    <       0.00004257 Ry

     iteration # 21     ecut=    80.00 Ry     beta= 0.40
     Davidson diagonalization with overlap
     ethr =  4.41E-07,  avg # of iterations =  1.0

     negative rho (up, down):  1.057E-04 0.000E+00

     total cpu time spent up to now is       96.4 secs

     total energy              =   -1113.98023402 Ry
     Harris-Foulkes estimate   =   -1113.98023334 Ry
     estimated scf accuracy    <       0.00001819 Ry

     iteration # 22     ecut=    80.00 Ry     beta= 0.40
     Davidson diagonalization with overlap
     ethr =  2.02E-07,  avg # of iterations =  2.0

     negative rho (up, down):  1.026E-04 0.000E+00

     total cpu time spent up to now is      100.0 secs

     total energy              =   -1113.98022630 Ry
     Harris-Foulkes estimate   =   -1113.98024574 Ry
     estimated scf accuracy    <       0.00003226 Ry

     iteration # 23     ecut=    80.00 Ry     beta= 0.40
     Davidson diagonalization with overlap
     ethr =  2.02E-07,  avg # of iterations =  1.0

     negative rho (up, down):  9.920E-05 0.000E+00

     total cpu time spent up to now is      102.9 secs

     total energy              =   -1113.98022638 Ry
     Harris-Foulkes estimate   =   -1113.98022913 Ry
     estimated scf accuracy    <       0.00000384 Ry

     iteration # 24     ecut=    80.00 Ry     beta= 0.40
     Davidson diagonalization with overlap
     ethr =  4.26E-08,  avg # of iterations =  2.0

     negative rho (up, down):  9.895E-05 0.000E+00

     total cpu time spent up to now is      106.3 secs

     total energy              =   -1113.98022726 Ry
     Harris-Foulkes estimate   =   -1113.98022727 Ry
     estimated scf accuracy    <       0.00000016 Ry

     iteration # 25     ecut=    80.00 Ry     beta= 0.40
     Davidson diagonalization with overlap
     ethr =  1.73E-09,  avg # of iterations =  2.1

     negative rho (up, down):  9.766E-05 0.000E+00

     total cpu time spent up to now is      110.0 secs

     total energy              =   -1113.98022718 Ry
     Harris-Foulkes estimate   =   -1113.98022740 Ry
     estimated scf accuracy    <       0.00000031 Ry

     iteration # 26     ecut=    80.00 Ry     beta= 0.40
     Davidson diagonalization with overlap
     ethr =  1.73E-09,  avg # of iterations =  2.0

     negative rho (up, down):  9.810E-05 0.000E+00

     total cpu time spent up to now is      113.2 secs

     total energy              =   -1113.98022721 Ry
     Harris-Foulkes estimate   =   -1113.98022723 Ry
     estimated scf accuracy    <       0.00000004 Ry

     iteration # 27     ecut=    80.00 Ry     beta= 0.40
     Davidson diagonalization with overlap
     ethr =  4.13E-10,  avg # of iterations =  3.0

     negative rho (up, down):  9.796E-05 0.000E+00

     total cpu time spent up to now is      117.1 secs

     total energy              =   -1113.98022721 Ry
     Harris-Foulkes estimate   =   -1113.98022723 Ry
     estimated scf accuracy    <       0.00000002 Ry

     iteration # 28     ecut=    80.00 Ry     beta= 0.40
     Davidson diagonalization with overlap
     ethr =  2.77E-10,  avg # of iterations =  2.0

     negative rho (up, down):  9.803E-05 0.000E+00

     total cpu time spent up to now is      120.7 secs

     End of self-consistent calculation

     Number of k-points >= 100: set verbosity='high' to print the bands.

     the Fermi energy is  -950.6914 ev

!    total energy              =   -1113.98022722 Ry
     Harris-Foulkes estimate   =   -1113.98022722 Ry
     estimated scf accuracy    <          4.0E-11 Ry

     total all-electron energy =    -16569.066003 Ry

     The total energy is the sum of the following terms:

     one-electron contribution =    -676.01827964 Ry
     hartree contribution      =      31.08958335 Ry
     xc contribution           =     -26.74710557 Ry
     ewald contribution        =     -58.06156986 Ry
     one-center paw contrib.   =    -384.23445398 Ry
     smearing contrib. (-TS)   =      -0.00840151 Ry

     convergence has been achieved in  28 iterations

     negative rho (up, down):  9.803E-05 0.000E+00

     Forces acting on atoms (cartesian axes, Ry/au):

     atom    1 type  1   force =     0.00000000    0.00000000    0.00000000
     atom    2 type  2   force =     0.00000000    0.00000000   -0.00000000
     atom    3 type  3   force =     0.00000000    0.00000000    0.00000000

     Total force =     0.000000     Total SCF correction =     0.000000


     Computing stress (Cartesian axis) and pressure


     negative rho (up, down):  9.803E-05 0.000E+00
          total   stress  (Ry/bohr**3)                   (kbar)     P=********
  -1.44640182   0.00000000   0.00000000    -212773.02      0.00      0.00
   0.00000000  -1.44640182  -0.00000000          0.00-212773.02     -0.00
   0.00000000  -0.00000000  -1.44640182          0.00     -0.00-212773.02


     init_run     :      1.41s CPU      2.38s WALL (       1 calls)
     electrons    :     67.20s CPU    115.84s WALL (       1 calls)
     forces       :      0.41s CPU      0.81s WALL (       1 calls)
     stress       :      0.86s CPU      1.41s WALL (       1 calls)

     Called by init_run:
     wfcinit      :      1.04s CPU      1.66s WALL (       1 calls)
     potinit      :      0.08s CPU      0.18s WALL (       1 calls)
     hinit0       :      0.25s CPU      0.47s WALL (       1 calls)

     Called by electrons:
     c_bands      :     54.54s CPU     93.15s WALL (      28 calls)
     sum_band     :      9.87s CPU     16.57s WALL (      28 calls)
     v_of_rho     :      0.30s CPU      0.54s WALL (      29 calls)
     newd         :      0.76s CPU      1.02s WALL (      29 calls)
     PAW_pot      :      1.68s CPU      4.52s WALL (      29 calls)
     mix_rho      :      0.09s CPU      0.12s WALL (      28 calls)

     Called by c_bands:
     init_us_2    :      1.44s CPU      1.97s WALL (    6490 calls)
     cegterg      :     51.50s CPU     88.16s WALL (    3080 calls)

     Called by sum_band:
     sum_band:bec :      0.04s CPU      0.06s WALL (    3080 calls)
     addusdens    :      0.56s CPU      0.65s WALL (      28 calls)

     Called by *egterg:
     h_psi        :     40.77s CPU     70.27s WALL (   11521 calls)
     s_psi        :      1.60s CPU      2.18s WALL (   11521 calls)
     g_psi        :      0.08s CPU      0.11s WALL (    8331 calls)
     cdiaghg      :      1.70s CPU      2.63s WALL (   11411 calls)

     Called by h_psi:
     h_psi:pot    :     40.56s CPU     69.96s WALL (   11521 calls)
     h_psi:calbec :      3.86s CPU      7.29s WALL (   11521 calls)
     vloc_psi     :     34.92s CPU     60.20s WALL (   11521 calls)
     add_vuspsi   :      1.73s CPU      2.43s WALL (   11521 calls)

     General routines
     calbec       :      5.63s CPU     10.68s WALL (   15151 calls)
     fft          :      0.20s CPU      0.52s WALL (     345 calls)
     ffts         :      0.01s CPU      0.02s WALL (      28 calls)
     fftw         :     39.13s CPU     68.29s WALL (  173602 calls)

     Parallel routines
     fft_scatt_xy :      2.66s CPU      3.74s WALL (  173975 calls)
     fft_scatt_yz :     22.74s CPU     45.77s WALL (  173975 calls)

     PWSCF        :  1m11.72s CPU     2m 2.88s WALL


   This run was terminated on:   7:34:48  24Oct2018            

=------------------------------------------------------------------------------=
   JOB DONE.
=------------------------------------------------------------------------------=
