
     Program PWSCF v.6.3MaX starts on 24Oct2018 at 13:18:16 

     This program is part of the open-source Quantum ESPRESSO suite
     for quantum simulation of materials; please cite
         "P. Giannozzi et al., J. Phys.:Condens. Matter 21 395502 (2009);
         "P. Giannozzi et al., J. Phys.:Condens. Matter 29 465901 (2017);
          URL http://www.quantum-espresso.org", 
     in publications or presentations arising from this work. More details at
     http://www.quantum-espresso.org/quote

     Parallel version (MPI), running on     8 processors

     MPI processes distributed on     1 nodes
     R & G space division:  proc/nbgrp/npool/nimage =       8
     Waiting for input...
     Reading input from standard input
Warning: card &CELL ignored
Warning: card                CELL_DYNAMICS = 'BFGS' , ignored
Warning: card / ignored

     Current dimensions of program PWSCF are:
     Max number of different atomic species (ntypx) = 10
     Max number of k-points (npk) =  40000
     Max angular momentum in pseudopotentials (lmaxx) =  3
     Message from routine iosys:
     minimal I/O required, wf_collect reset to FALSE
               file N.pbe-n-kjpaw_psl.1.0.0.UPF: wavefunction(s)  2S renormalized
               file Na.pbe-spnl-kjpaw_psl.1.0.0.UPF: wavefunction(s)  2P renormalized

     Subspace diagonalization in iterative solution of the eigenvalue problem:
     a serial algorithm will be used


     Parallelization info
     --------------------
     sticks:   dense  smooth     PW     G-vecs:    dense   smooth      PW
     Min          23      23      9                  209      209      51
     Max          24      24     10                  212      212      52
     Sum         187     187     73                 1687     1687     411



     bravais-lattice index     =            2
     lattice parameter (alat)  =       4.1000  a.u.
     unit-cell volume          =      17.2302 (a.u.)^3
     number of atoms/cell      =            3
     number of atomic types    =            3
     number of electrons       =         9.00
     number of Kohn-Sham states=            9
     kinetic-energy cutoff     =      80.0000  Ry
     charge density cutoff     =     320.0000  Ry
     convergence threshold     =      1.0E-09
     mixing beta               =       0.4000
     number of iterations used =            8  plain     mixing
     Exchange-correlation      = SLA PW PBX PBC ( 1  4  3  4 0 0)

     celldm(1)=   4.100000  celldm(2)=   0.000000  celldm(3)=   0.000000
     celldm(4)=   0.000000  celldm(5)=   0.000000  celldm(6)=   0.000000

     crystal axes: (cart. coord. in units of alat)
               a(1) = (  -0.500000   0.000000   0.500000 )  
               a(2) = (   0.000000   0.500000   0.500000 )  
               a(3) = (  -0.500000   0.500000   0.000000 )  

     reciprocal axes: (cart. coord. in units 2 pi/alat)
               b(1) = ( -1.000000 -1.000000  1.000000 )  
               b(2) = (  1.000000  1.000000  1.000000 )  
               b(3) = ( -1.000000  1.000000 -1.000000 )  


     PseudoPot. # 1 for N  read from file:
     ./ps/N.pbe-n-kjpaw_psl.1.0.0.UPF
     MD5 check sum: 200139db3989ad6e773ddd42f12fc3a8
     Pseudo is Projector augmented-wave + core cor, Zval =  5.0
     Generated using "atomic" code by A. Dal Corso v.6.3
     Shape of augmentation charge: PSQ
     Using radial grid of 1085 points,  4 beta functions with: 
                l(1) =   0
                l(2) =   0
                l(3) =   1
                l(4) =   1
     Q(r) pseudized with 0 coefficients 


     PseudoPot. # 2 for Na read from file:
     ./ps/Na.pbe-spnl-kjpaw_psl.1.0.0.UPF
     MD5 check sum: 09e782c158f17eb2240230c4112357ee
     Pseudo is Projector augmented-wave + core cor, Zval =  9.0
     Generated using "atomic" code by A. Dal Corso v.6.3
     Shape of augmentation charge: PSQ
     Using radial grid of 1121 points,  4 beta functions with: 
                l(1) =   0
                l(2) =   0
                l(3) =   1
                l(4) =   1
     Q(r) pseudized with 0 coefficients 


     PseudoPot. # 3 for Cs read from file:
     ./ps/Cs.pbe-spnl-kjpaw_psl.1.0.0.UPF
     MD5 check sum: f98336d4a4407e24c1ab1e3bc36275e8
     Pseudo is Projector augmented-wave + core cor, Zval = -5.0
     Generated using "atomic" code by A. Dal Corso v.6.2.2
     Shape of augmentation charge: PSQ
     Using radial grid of 1251 points,  6 beta functions with: 
                l(1) =   0
                l(2) =   0
                l(3) =   1
                l(4) =   1
                l(5) =   2
                l(6) =   2
     Q(r) pseudized with 0 coefficients 


     atomic species   valence    mass     pseudopotential
        N              5.00    14.00670     N ( 1.00)
        Na             9.00    22.98977     Na( 1.00)
        Cs            -5.00   132.90545     Cs( 1.00)

     24 Sym. Ops. (no inversion) found



   Cartesian axes

     site n.     atom                  positions (alat units)
         1           N   tau(   1) = (   0.0000000   0.0000000   0.0000000  )
         2           Na  tau(   2) = (  -0.2500000   0.2500000   0.2500000  )
         3           Cs  tau(   3) = (  -0.7500000   0.7500000   0.7500000  )

     number of k points=   110  Methfessel-Paxton smearing, width (Ry)=  0.0200

     Number of k-points >= 100: set verbosity='high' to print them.

     Dense  grid:     1687 G-vectors     FFT dimensions: (  18,  18,  18)

     Estimated max dynamical RAM per process >       4.04 MB

     Estimated total dynamical RAM >      32.34 MB

     Initial potential from superposition of free atoms

     starting charge   22.95298, renormalised to    9.00000
     Starting wfcs are   14 randomized atomic wfcs
     Checking if some PAW data can be deallocated... 

     total cpu time spent up to now is        3.4 secs

     Self-consistent Calculation

     iteration #  1     ecut=    80.00 Ry     beta= 0.40
     Davidson diagonalization with overlap
     ethr =  1.00E-02,  avg # of iterations =  8.1

     negative rho (up, down):  3.222E-01 0.000E+00

     total cpu time spent up to now is        4.8 secs

     total energy              =   -9536.19870582 Ry
     Harris-Foulkes estimate   =   -9541.33353860 Ry
     estimated scf accuracy    <      11.59731575 Ry

     iteration #  2     ecut=    80.00 Ry     beta= 0.40
     Davidson diagonalization with overlap
     ethr =  1.00E-02,  avg # of iterations =  2.0

     negative rho (up, down):  1.108E+00 0.000E+00

     total cpu time spent up to now is        5.5 secs

     total energy              =   -9535.24404317 Ry
     Harris-Foulkes estimate   =   -9536.67711200 Ry
     estimated scf accuracy    <       2.68938545 Ry

     iteration #  3     ecut=    80.00 Ry     beta= 0.40
     Davidson diagonalization with overlap
     ethr =  1.00E-02,  avg # of iterations =  1.9

     negative rho (up, down):  1.523E+00 0.000E+00

     total cpu time spent up to now is        6.4 secs

     total energy              =   -9535.51584154 Ry
     Harris-Foulkes estimate   =   -9535.61992153 Ry
     estimated scf accuracy    <       0.27611102 Ry

     iteration #  4     ecut=    80.00 Ry     beta= 0.40
     Davidson diagonalization with overlap
     ethr =  3.07E-03,  avg # of iterations =  2.0

     negative rho (up, down):  1.503E+00 0.000E+00

     total cpu time spent up to now is        7.2 secs

     total energy              =   -9535.49503284 Ry
     Harris-Foulkes estimate   =   -9535.71769085 Ry
     estimated scf accuracy    <       0.34250052 Ry

     iteration #  5     ecut=    80.00 Ry     beta= 0.40
     Davidson diagonalization with overlap
     ethr =  3.07E-03,  avg # of iterations =  1.0

     negative rho (up, down):  1.505E+00 0.000E+00

     total cpu time spent up to now is        8.0 secs

     total energy              =   -9535.55173547 Ry
     Harris-Foulkes estimate   =   -9535.55489581 Ry
     estimated scf accuracy    <       0.00635994 Ry

     iteration #  6     ecut=    80.00 Ry     beta= 0.40
     Davidson diagonalization with overlap
     ethr =  7.07E-05,  avg # of iterations =  5.0

     negative rho (up, down):  1.504E+00 0.000E+00

     total cpu time spent up to now is        9.3 secs

     total energy              =   -9535.55167873 Ry
     Harris-Foulkes estimate   =   -9535.55297821 Ry
     estimated scf accuracy    <       0.00128921 Ry

     iteration #  7     ecut=    80.00 Ry     beta= 0.40
     Davidson diagonalization with overlap
     ethr =  1.43E-05,  avg # of iterations =  2.0

     negative rho (up, down):  1.504E+00 0.000E+00

     total cpu time spent up to now is       10.2 secs

     total energy              =   -9535.55220634 Ry
     Harris-Foulkes estimate   =   -9535.55234412 Ry
     estimated scf accuracy    <       0.00019675 Ry

     iteration #  8     ecut=    80.00 Ry     beta= 0.40
     Davidson diagonalization with overlap
     ethr =  2.19E-06,  avg # of iterations =  1.9

     negative rho (up, down):  1.504E+00 0.000E+00

     total cpu time spent up to now is       11.0 secs

     total energy              =   -9535.55224651 Ry
     Harris-Foulkes estimate   =   -9535.55224789 Ry
     estimated scf accuracy    <       0.00000563 Ry

     iteration #  9     ecut=    80.00 Ry     beta= 0.40
     Davidson diagonalization with overlap
     ethr =  6.25E-08,  avg # of iterations =  2.2

     negative rho (up, down):  1.504E+00 0.000E+00

     total cpu time spent up to now is       12.0 secs

     total energy              =   -9535.55224768 Ry
     Harris-Foulkes estimate   =   -9535.55224758 Ry
     estimated scf accuracy    <       0.00000083 Ry

     iteration # 10     ecut=    80.00 Ry     beta= 0.40
     Davidson diagonalization with overlap
     ethr =  9.24E-09,  avg # of iterations =  1.2

     negative rho (up, down):  1.504E+00 0.000E+00

     total cpu time spent up to now is       12.8 secs

     total energy              =   -9535.55224784 Ry
     Harris-Foulkes estimate   =   -9535.55224782 Ry
     estimated scf accuracy    <       0.00000011 Ry

     iteration # 11     ecut=    80.00 Ry     beta= 0.40
     Davidson diagonalization with overlap
     ethr =  1.21E-09,  avg # of iterations =  1.3

     negative rho (up, down):  1.504E+00 0.000E+00

     total cpu time spent up to now is       13.6 secs

     total energy              =   -9535.55224790 Ry
     Harris-Foulkes estimate   =   -9535.55224782 Ry
     estimated scf accuracy    <       0.00000003 Ry

     iteration # 12     ecut=    80.00 Ry     beta= 0.40
     Davidson diagonalization with overlap
     ethr =  3.26E-10,  avg # of iterations =  1.1

     negative rho (up, down):  1.504E+00 0.000E+00

     total cpu time spent up to now is       14.4 secs

     total energy              =   -9535.55224796 Ry
     Harris-Foulkes estimate   =   -9535.55224794 Ry
     estimated scf accuracy    <          2.9E-09 Ry

     iteration # 13     ecut=    80.00 Ry     beta= 0.40
     Davidson diagonalization with overlap
     ethr =  3.18E-11,  avg # of iterations =  1.4

     negative rho (up, down):  1.504E+00 0.000E+00

     total cpu time spent up to now is       15.2 secs

     total energy              =   -9535.55224789 Ry
     Harris-Foulkes estimate   =   -9535.55224786 Ry
     estimated scf accuracy    <          1.6E-09 Ry

     iteration # 14     ecut=    80.00 Ry     beta= 0.40
     Davidson diagonalization with overlap
     ethr =  1.76E-11,  avg # of iterations =  1.0

     negative rho (up, down):  1.504E+00 0.000E+00

     total cpu time spent up to now is       15.9 secs

     End of self-consistent calculation

     Number of k-points >= 100: set verbosity='high' to print the bands.

     the Fermi energy is ********** ev

!    total energy              =   -9535.55224806 Ry
     Harris-Foulkes estimate   =   -9535.55224805 Ry
     estimated scf accuracy    <          1.6E-10 Ry

     total all-electron energy =    -24990.638024 Ry

     The total energy is the sum of the following terms:

     one-electron contribution =   -9000.72333400 Ry
     hartree contribution      =      16.87755041 Ry
     xc contribution           =     -32.25256866 Ry
     ewald contribution        =    -130.39473436 Ry
     one-center paw contrib.   =    -389.05915501 Ry
     smearing contrib. (-TS)   =      -0.00000644 Ry

     convergence has been achieved in  14 iterations

     negative rho (up, down):  1.504E+00 0.000E+00

     Forces acting on atoms (cartesian axes, Ry/au):

     atom    1 type  1   force =     0.00000000    0.00000000    0.00000000
     atom    2 type  2   force =    -0.00000000   -0.00000000    0.00000000
     atom    3 type  3   force =     0.00000000    0.00000000    0.00000000

     Total force =     0.000000     Total SCF correction =     0.000000


     Computing stress (Cartesian axis) and pressure


     negative rho (up, down):  1.504E+00 0.000E+00
          total   stress  (Ry/bohr**3)                   (kbar)     P=********
-464.90453024  -0.00000000  -0.00000000    **********     -0.00     -0.00
  -0.00000000-464.90453024   0.00000000         -0.00**********      0.00
  -0.00000000   0.00000000-464.90453024         -0.00      0.00**********


     init_run     :      0.33s CPU      0.74s WALL (       1 calls)
     electrons    :      5.30s CPU     12.50s WALL (       1 calls)
     forces       :      0.04s CPU      0.12s WALL (       1 calls)
     stress       :      0.10s CPU      0.20s WALL (       1 calls)

     Called by init_run:
     wfcinit      :      0.15s CPU      0.22s WALL (       1 calls)
     potinit      :      0.05s CPU      0.23s WALL (       1 calls)
     hinit0       :      0.12s CPU      0.27s WALL (       1 calls)

     Called by electrons:
     c_bands      :      3.79s CPU      7.39s WALL (      14 calls)
     sum_band     :      0.55s CPU      1.24s WALL (      14 calls)
     v_of_rho     :      0.01s CPU      0.03s WALL (      15 calls)
     newd         :      0.01s CPU      0.03s WALL (      15 calls)
     PAW_pot      :      0.96s CPU      4.00s WALL (      15 calls)
     mix_rho      :      0.01s CPU      0.01s WALL (      14 calls)

     Called by c_bands:
     init_us_2    :      0.08s CPU      0.12s WALL (    3410 calls)
     cegterg      :      3.61s CPU      7.03s WALL (    1540 calls)

     Called by sum_band:
     sum_band:bec :      0.02s CPU      0.02s WALL (    1540 calls)
     addusdens    :      0.02s CPU      0.02s WALL (      14 calls)

     Called by *egterg:
     h_psi        :      2.42s CPU      4.65s WALL (    5203 calls)
     s_psi        :      0.12s CPU      0.15s WALL (    5203 calls)
     g_psi        :      0.01s CPU      0.01s WALL (    3553 calls)
     cdiaghg      :      0.69s CPU      1.30s WALL (    5093 calls)

     Called by h_psi:
     h_psi:pot    :      2.41s CPU      4.64s WALL (    5203 calls)
     h_psi:calbec :      0.25s CPU      0.58s WALL (    5203 calls)
     vloc_psi     :      2.01s CPU      3.87s WALL (    5203 calls)
     add_vuspsi   :      0.13s CPU      0.16s WALL (    5203 calls)

     General routines
     calbec       :      0.34s CPU      0.92s WALL (    7293 calls)
     fft          :      0.01s CPU      0.05s WALL (     191 calls)
     ffts         :      0.00s CPU      0.00s WALL (      14 calls)
     fftw         :      2.23s CPU      4.56s WALL (   82956 calls)

     Parallel routines
     fft_scatt_xy :      0.17s CPU      0.22s WALL (   83161 calls)
     fft_scatt_yz :      1.15s CPU      3.18s WALL (   83161 calls)

     PWSCF        :     7.45s CPU        16.26s WALL


   This run was terminated on:  13:18:32  24Oct2018            

=------------------------------------------------------------------------------=
   JOB DONE.
=------------------------------------------------------------------------------=
