
     Program PWSCF v.6.3MaX starts on 24Oct2018 at 12:36:56 

     This program is part of the open-source Quantum ESPRESSO suite
     for quantum simulation of materials; please cite
         "P. Giannozzi et al., J. Phys.:Condens. Matter 21 395502 (2009);
         "P. Giannozzi et al., J. Phys.:Condens. Matter 29 465901 (2017);
          URL http://www.quantum-espresso.org", 
     in publications or presentations arising from this work. More details at
     http://www.quantum-espresso.org/quote

     Parallel version (MPI), running on     8 processors

     MPI processes distributed on     1 nodes
     R & G space division:  proc/nbgrp/npool/nimage =       8
     Waiting for input...
     Reading input from standard input
Warning: card &CELL ignored
Warning: card                CELL_DYNAMICS = 'BFGS' , ignored
Warning: card / ignored

     Current dimensions of program PWSCF are:
     Max number of different atomic species (ntypx) = 10
     Max number of k-points (npk) =  40000
     Max angular momentum in pseudopotentials (lmaxx) =  3
     Message from routine iosys:
     minimal I/O required, wf_collect reset to FALSE
               file N.pbe-n-kjpaw_psl.1.0.0.UPF: wavefunction(s)  2S renormalized
               file Na.pbe-spnl-kjpaw_psl.1.0.0.UPF: wavefunction(s)  2P renormalized

     Subspace diagonalization in iterative solution of the eigenvalue problem:
     a serial algorithm will be used


     Parallelization info
     --------------------
     sticks:   dense  smooth     PW     G-vecs:    dense   smooth      PW
     Min          72      72     23                 1147     1147     209
     Max          73      73     24                 1149     1149     212
     Sum         583     583    187                 9185     9185    1687



     bravais-lattice index     =            2
     lattice parameter (alat)  =       7.2000  a.u.
     unit-cell volume          =      93.3120 (a.u.)^3
     number of atoms/cell      =            3
     number of atomic types    =            3
     number of electrons       =         9.00
     number of Kohn-Sham states=            9
     kinetic-energy cutoff     =      80.0000  Ry
     charge density cutoff     =     320.0000  Ry
     convergence threshold     =      1.0E-09
     mixing beta               =       0.4000
     number of iterations used =            8  plain     mixing
     Exchange-correlation      = SLA PW PBX PBC ( 1  4  3  4 0 0)

     celldm(1)=   7.200000  celldm(2)=   0.000000  celldm(3)=   0.000000
     celldm(4)=   0.000000  celldm(5)=   0.000000  celldm(6)=   0.000000

     crystal axes: (cart. coord. in units of alat)
               a(1) = (  -0.500000   0.000000   0.500000 )  
               a(2) = (   0.000000   0.500000   0.500000 )  
               a(3) = (  -0.500000   0.500000   0.000000 )  

     reciprocal axes: (cart. coord. in units 2 pi/alat)
               b(1) = ( -1.000000 -1.000000  1.000000 )  
               b(2) = (  1.000000  1.000000  1.000000 )  
               b(3) = ( -1.000000  1.000000 -1.000000 )  


     PseudoPot. # 1 for N  read from file:
     ./ps/N.pbe-n-kjpaw_psl.1.0.0.UPF
     MD5 check sum: 200139db3989ad6e773ddd42f12fc3a8
     Pseudo is Projector augmented-wave + core cor, Zval =  5.0
     Generated using "atomic" code by A. Dal Corso v.6.3
     Shape of augmentation charge: PSQ
     Using radial grid of 1085 points,  4 beta functions with: 
                l(1) =   0
                l(2) =   0
                l(3) =   1
                l(4) =   1
     Q(r) pseudized with 0 coefficients 


     PseudoPot. # 2 for Na read from file:
     ./ps/Na.pbe-spnl-kjpaw_psl.1.0.0.UPF
     MD5 check sum: 09e782c158f17eb2240230c4112357ee
     Pseudo is Projector augmented-wave + core cor, Zval =  9.0
     Generated using "atomic" code by A. Dal Corso v.6.3
     Shape of augmentation charge: PSQ
     Using radial grid of 1121 points,  4 beta functions with: 
                l(1) =   0
                l(2) =   0
                l(3) =   1
                l(4) =   1
     Q(r) pseudized with 0 coefficients 


     PseudoPot. # 3 for Cs read from file:
     ./ps/Cs.pbe-spnl-kjpaw_psl.1.0.0.UPF
     MD5 check sum: f98336d4a4407e24c1ab1e3bc36275e8
     Pseudo is Projector augmented-wave + core cor, Zval = -5.0
     Generated using "atomic" code by A. Dal Corso v.6.2.2
     Shape of augmentation charge: PSQ
     Using radial grid of 1251 points,  6 beta functions with: 
                l(1) =   0
                l(2) =   0
                l(3) =   1
                l(4) =   1
                l(5) =   2
                l(6) =   2
     Q(r) pseudized with 0 coefficients 


     atomic species   valence    mass     pseudopotential
        N              5.00    14.00670     N ( 1.00)
        Na             9.00    22.98977     Na( 1.00)
        Cs            -5.00   132.90545     Cs( 1.00)

     24 Sym. Ops. (no inversion) found



   Cartesian axes

     site n.     atom                  positions (alat units)
         1           N   tau(   1) = (   0.0000000   0.0000000   0.0000000  )
         2           Na  tau(   2) = (  -0.2500000   0.2500000   0.2500000  )
         3           Cs  tau(   3) = (  -0.7500000   0.7500000   0.7500000  )

     number of k points=   110  Methfessel-Paxton smearing, width (Ry)=  0.0200

     Number of k-points >= 100: set verbosity='high' to print them.

     Dense  grid:     9185 G-vectors     FFT dimensions: (  30,  30,  30)

     Estimated max dynamical RAM per process >      11.48 MB

     Estimated total dynamical RAM >      91.80 MB

     Initial potential from superposition of free atoms

     starting charge   22.95298, renormalised to    9.00000
     Starting wfcs are   14 randomized atomic wfcs
     Checking if some PAW data can be deallocated... 

     total cpu time spent up to now is        4.6 secs

     Self-consistent Calculation

     iteration #  1     ecut=    80.00 Ry     beta= 0.40
     Davidson diagonalization with overlap
     ethr =  1.00E-02,  avg # of iterations = 10.4

     negative rho (up, down):  8.120E-01 0.000E+00

     total cpu time spent up to now is        8.8 secs

     total energy              =   -2140.54841159 Ry
     Harris-Foulkes estimate   =   -2150.33200110 Ry
     estimated scf accuracy    <      23.64604488 Ry

     iteration #  2     ecut=    80.00 Ry     beta= 0.40
     Davidson diagonalization with overlap
     ethr =  1.00E-02,  avg # of iterations =  2.5

     negative rho (up, down):  1.799E+00 0.000E+00

     total cpu time spent up to now is       10.4 secs

     total energy              =   -2137.07275158 Ry
     Harris-Foulkes estimate   =   -2141.06758484 Ry
     estimated scf accuracy    <       6.47658120 Ry

     iteration #  3     ecut=    80.00 Ry     beta= 0.40
     Davidson diagonalization with overlap
     ethr =  1.00E-02,  avg # of iterations =  2.3

     negative rho (up, down):  1.557E+00 0.000E+00

     total cpu time spent up to now is       12.0 secs

     total energy              =   -2137.82274128 Ry
     Harris-Foulkes estimate   =   -2138.02752352 Ry
     estimated scf accuracy    <       0.32999885 Ry

     iteration #  4     ecut=    80.00 Ry     beta= 0.40
     Davidson diagonalization with overlap
     ethr =  3.67E-03,  avg # of iterations =  2.0

     negative rho (up, down):  1.718E+00 0.000E+00

     total cpu time spent up to now is       13.4 secs

     total energy              =   -2137.82513218 Ry
     Harris-Foulkes estimate   =   -2137.99022012 Ry
     estimated scf accuracy    <       0.20006447 Ry

     iteration #  5     ecut=    80.00 Ry     beta= 0.40
     Davidson diagonalization with overlap
     ethr =  2.22E-03,  avg # of iterations =  1.4

     negative rho (up, down):  1.684E+00 0.000E+00

     total cpu time spent up to now is       14.6 secs

     total energy              =   -2137.86580084 Ry
     Harris-Foulkes estimate   =   -2137.86939803 Ry
     estimated scf accuracy    <       0.00674135 Ry

     iteration #  6     ecut=    80.00 Ry     beta= 0.40
     Davidson diagonalization with overlap
     ethr =  7.49E-05,  avg # of iterations =  4.9

     negative rho (up, down):  1.685E+00 0.000E+00

     total cpu time spent up to now is       17.1 secs

     total energy              =   -2137.86950050 Ry
     Harris-Foulkes estimate   =   -2137.87008950 Ry
     estimated scf accuracy    <       0.00077776 Ry

     iteration #  7     ecut=    80.00 Ry     beta= 0.40
     Davidson diagonalization with overlap
     ethr =  8.64E-06,  avg # of iterations =  2.4

     negative rho (up, down):  1.690E+00 0.000E+00

     total cpu time spent up to now is       18.4 secs

     total energy              =   -2137.86932671 Ry
     Harris-Foulkes estimate   =   -2137.86955982 Ry
     estimated scf accuracy    <       0.00020359 Ry

     iteration #  8     ecut=    80.00 Ry     beta= 0.40
     Davidson diagonalization with overlap
     ethr =  2.26E-06,  avg # of iterations =  2.6

     negative rho (up, down):  1.687E+00 0.000E+00

     total cpu time spent up to now is       19.9 secs

     total energy              =   -2137.86930147 Ry
     Harris-Foulkes estimate   =   -2137.86938808 Ry
     estimated scf accuracy    <       0.00001822 Ry

     iteration #  9     ecut=    80.00 Ry     beta= 0.40
     Davidson diagonalization with overlap
     ethr =  2.02E-07,  avg # of iterations =  2.2

     negative rho (up, down):  1.688E+00 0.000E+00

     total cpu time spent up to now is       21.5 secs

     total energy              =   -2137.86931022 Ry
     Harris-Foulkes estimate   =   -2137.86930625 Ry
     estimated scf accuracy    <       0.00000109 Ry

     iteration # 10     ecut=    80.00 Ry     beta= 0.40
     Davidson diagonalization with overlap
     ethr =  1.21E-08,  avg # of iterations =  3.6

     negative rho (up, down):  1.688E+00 0.000E+00

     total cpu time spent up to now is       23.2 secs

     total energy              =   -2137.86929789 Ry
     Harris-Foulkes estimate   =   -2137.86931090 Ry
     estimated scf accuracy    <       0.00000057 Ry

     iteration # 11     ecut=    80.00 Ry     beta= 0.40
     Davidson diagonalization with overlap
     ethr =  6.36E-09,  avg # of iterations =  1.2

     negative rho (up, down):  1.688E+00 0.000E+00

     total cpu time spent up to now is       24.4 secs

     total energy              =   -2137.86929618 Ry
     Harris-Foulkes estimate   =   -2137.86929791 Ry
     estimated scf accuracy    <       0.00000005 Ry

     iteration # 12     ecut=    80.00 Ry     beta= 0.40
     Davidson diagonalization with overlap
     ethr =  5.06E-10,  avg # of iterations =  3.4

     negative rho (up, down):  1.688E+00 0.000E+00

     total cpu time spent up to now is       26.1 secs

     End of self-consistent calculation

     Number of k-points >= 100: set verbosity='high' to print the bands.

     the Fermi energy is -2492.2555 ev

!    total energy              =   -2137.86929551 Ry
     Harris-Foulkes estimate   =   -2137.86929619 Ry
     estimated scf accuracy    <          3.0E-10 Ry

     total all-electron energy =    -17592.955071 Ry

     The total energy is the sum of the following terms:

     one-electron contribution =   -1657.30814554 Ry
     hartree contribution      =       8.23358039 Ry
     xc contribution           =     -26.25182412 Ry
     ewald contribution        =     -74.25255707 Ry
     one-center paw contrib.   =    -388.28838007 Ry
     smearing contrib. (-TS)   =      -0.00196911 Ry

     convergence has been achieved in  12 iterations

     negative rho (up, down):  1.688E+00 0.000E+00

     Forces acting on atoms (cartesian axes, Ry/au):

     atom    1 type  1   force =     0.00000000    0.00000000    0.00000000
     atom    2 type  2   force =     0.00000000    0.00000000    0.00000000
     atom    3 type  3   force =     0.00000000    0.00000000    0.00000000

     Total force =     0.000000     Total SCF correction =     0.000000


     Computing stress (Cartesian axis) and pressure


     negative rho (up, down):  1.688E+00 0.000E+00
          total   stress  (Ry/bohr**3)                   (kbar)     P=********
 -17.99505770   0.00000000   0.00000000    **********      0.00      0.00
   0.00000000 -17.99505770  -0.00000000          0.00**********     -0.00
   0.00000000  -0.00000000 -17.99505770          0.00     -0.00**********


     init_run     :      0.64s CPU      1.37s WALL (       1 calls)
     electrons    :     10.68s CPU     21.43s WALL (       1 calls)
     forces       :      0.13s CPU      0.25s WALL (       1 calls)
     stress       :      0.27s CPU      0.62s WALL (       1 calls)

     Called by init_run:
     wfcinit      :      0.37s CPU      0.62s WALL (       1 calls)
     potinit      :      0.06s CPU      0.25s WALL (       1 calls)
     hinit0       :      0.19s CPU      0.45s WALL (       1 calls)

     Called by electrons:
     c_bands      :      8.90s CPU     17.05s WALL (      12 calls)
     sum_band     :      1.25s CPU      2.23s WALL (      12 calls)
     v_of_rho     :      0.04s CPU      0.07s WALL (      13 calls)
     newd         :      0.08s CPU      0.15s WALL (      13 calls)
     PAW_pot      :      0.46s CPU      2.11s WALL (      13 calls)
     mix_rho      :      0.01s CPU      0.02s WALL (      12 calls)

     Called by c_bands:
     init_us_2    :      0.24s CPU      0.30s WALL (    2970 calls)
     cegterg      :      8.44s CPU     16.17s WALL (    1320 calls)

     Called by sum_band:
     sum_band:bec :      0.01s CPU      0.02s WALL (    1320 calls)
     addusdens    :      0.07s CPU      0.07s WALL (      12 calls)

     Called by *egterg:
     h_psi        :      5.75s CPU     11.53s WALL (    5719 calls)
     s_psi        :      0.36s CPU      0.45s WALL (    5719 calls)
     g_psi        :      0.02s CPU      0.02s WALL (    4289 calls)
     cdiaghg      :      0.90s CPU      1.41s WALL (    5609 calls)

     Called by h_psi:
     h_psi:pot    :      5.73s CPU     11.51s WALL (    5719 calls)
     h_psi:calbec :      0.69s CPU      1.85s WALL (    5719 calls)
     vloc_psi     :      4.66s CPU      9.18s WALL (    5719 calls)
     add_vuspsi   :      0.37s CPU      0.47s WALL (    5719 calls)

     General routines
     calbec       :      1.00s CPU      2.67s WALL (    7589 calls)
     fft          :      0.03s CPU      0.12s WALL (     169 calls)
     ffts         :      0.00s CPU      0.00s WALL (      12 calls)
     fftw         :      5.06s CPU     10.16s WALL (   88016 calls)

     Parallel routines
     fft_scatt_xy :      0.46s CPU      0.58s WALL (   88197 calls)
     fft_scatt_yz :      2.42s CPU      6.92s WALL (   88197 calls)

     PWSCF        :    13.54s CPU        26.95s WALL


   This run was terminated on:  12:37:23  24Oct2018            

=------------------------------------------------------------------------------=
   JOB DONE.
=------------------------------------------------------------------------------=
