
     Program PWSCF v.6.3MaX starts on 23Oct2018 at 16: 0:37 

     This program is part of the open-source Quantum ESPRESSO suite
     for quantum simulation of materials; please cite
         "P. Giannozzi et al., J. Phys.:Condens. Matter 21 395502 (2009);
         "P. Giannozzi et al., J. Phys.:Condens. Matter 29 465901 (2017);
          URL http://www.quantum-espresso.org", 
     in publications or presentations arising from this work. More details at
     http://www.quantum-espresso.org/quote

     Parallel version (MPI), running on     8 processors

     MPI processes distributed on     1 nodes
     R & G space division:  proc/nbgrp/npool/nimage =       8
     Waiting for input...
     Reading input from standard input
Warning: card &CELL ignored
Warning: card                CELL_DYNAMICS = 'BFGS' , ignored
Warning: card / ignored

     Current dimensions of program PWSCF are:
     Max number of different atomic species (ntypx) = 10
     Max number of k-points (npk) =  40000
     Max angular momentum in pseudopotentials (lmaxx) =  3
               file N.pbe-n-kjpaw_psl.1.0.0.UPF: wavefunction(s)  2S renormalized
               file Na.pbe-spnl-kjpaw_psl.1.0.0.UPF: wavefunction(s)  2P renormalized

     Subspace diagonalization in iterative solution of the eigenvalue problem:
     a serial algorithm will be used


     Parallelization info
     --------------------
     sticks:   dense  smooth     PW     G-vecs:    dense   smooth      PW
     Min         297     297     84                 9591     9591    1472
     Max         298     298     85                 9595     9595    1477
     Sum        2383    2383    673                76753    76753   11791



     bravais-lattice index     =            2
     lattice parameter (alat)  =      14.7000  a.u.
     unit-cell volume          =     794.1307 (a.u.)^3
     number of atoms/cell      =            3
     number of atomic types    =            3
     number of electrons       =         9.00
     number of Kohn-Sham states=            9
     kinetic-energy cutoff     =      80.0000  Ry
     charge density cutoff     =     320.0000  Ry
     convergence threshold     =      1.0E-09
     mixing beta               =       0.4000
     number of iterations used =            8  plain     mixing
     Exchange-correlation      = SLA PW PBX PBC ( 1  4  3  4 0 0)

     celldm(1)=  14.700000  celldm(2)=   0.000000  celldm(3)=   0.000000
     celldm(4)=   0.000000  celldm(5)=   0.000000  celldm(6)=   0.000000

     crystal axes: (cart. coord. in units of alat)
               a(1) = (  -0.500000   0.000000   0.500000 )  
               a(2) = (   0.000000   0.500000   0.500000 )  
               a(3) = (  -0.500000   0.500000   0.000000 )  

     reciprocal axes: (cart. coord. in units 2 pi/alat)
               b(1) = ( -1.000000 -1.000000  1.000000 )  
               b(2) = (  1.000000  1.000000  1.000000 )  
               b(3) = ( -1.000000  1.000000 -1.000000 )  


     PseudoPot. # 1 for N  read from file:
     ./ps/N.pbe-n-kjpaw_psl.1.0.0.UPF
     MD5 check sum: 200139db3989ad6e773ddd42f12fc3a8
     Pseudo is Projector augmented-wave + core cor, Zval =  5.0
     Generated using "atomic" code by A. Dal Corso v.6.3
     Shape of augmentation charge: PSQ
     Using radial grid of 1085 points,  4 beta functions with: 
                l(1) =   0
                l(2) =   0
                l(3) =   1
                l(4) =   1
     Q(r) pseudized with 0 coefficients 


     PseudoPot. # 2 for Na read from file:
     ./ps/Na.pbe-spnl-kjpaw_psl.1.0.0.UPF
     MD5 check sum: 09e782c158f17eb2240230c4112357ee
     Pseudo is Projector augmented-wave + core cor, Zval =  9.0
     Generated using "atomic" code by A. Dal Corso v.6.3
     Shape of augmentation charge: PSQ
     Using radial grid of 1121 points,  4 beta functions with: 
                l(1) =   0
                l(2) =   0
                l(3) =   1
                l(4) =   1
     Q(r) pseudized with 0 coefficients 


     PseudoPot. # 3 for Cs read from file:
     ./ps/Cs.pbe-spnl-kjpaw_psl.1.0.0.UPF
     MD5 check sum: f98336d4a4407e24c1ab1e3bc36275e8
     Pseudo is Projector augmented-wave + core cor, Zval = -5.0
     Generated using "atomic" code by A. Dal Corso v.6.2.2
     Shape of augmentation charge: PSQ
     Using radial grid of 1251 points,  6 beta functions with: 
                l(1) =   0
                l(2) =   0
                l(3) =   1
                l(4) =   1
                l(5) =   2
                l(6) =   2
     Q(r) pseudized with 0 coefficients 


     atomic species   valence    mass     pseudopotential
        N              5.00    14.00670     N ( 1.00)
        Na             9.00    22.98977     Na( 1.00)
        Cs            -5.00   132.90545     Cs( 1.00)

     24 Sym. Ops. (no inversion) found



   Cartesian axes

     site n.     atom                  positions (alat units)
         1           N   tau(   1) = (   0.0000000   0.0000000   0.0000000  )
         2           Na  tau(   2) = (  -0.2500000   0.2500000   0.2500000  )
         3           Cs  tau(   3) = (  -0.7500000   0.7500000   0.7500000  )

     number of k points=   110  Methfessel-Paxton smearing, width (Ry)=  0.0200

     Number of k-points >= 100: set verbosity='high' to print them.

     Dense  grid:    76753 G-vectors     FFT dimensions: (  60,  60,  60)

     Estimated max dynamical RAM per process >      64.95 MB

     Estimated total dynamical RAM >     519.58 MB

     Check: negative/imaginary core charge=   -0.000002    0.000000

     Initial potential from superposition of free atoms

     starting charge   22.95298, renormalised to    9.00000
     Starting wfcs are   14 randomized atomic wfcs
     Checking if some PAW data can be deallocated... 

     total cpu time spent up to now is        5.6 secs

     Self-consistent Calculation

     iteration #  1     ecut=    80.00 Ry     beta= 0.40
     Davidson diagonalization with overlap
     ethr =  1.00E-02,  avg # of iterations = 11.2

     total cpu time spent up to now is       20.9 secs

     total energy              =    -716.22611546 Ry
     Harris-Foulkes estimate   =    -744.32695136 Ry
     estimated scf accuracy    <      48.81550453 Ry

     iteration #  2     ecut=    80.00 Ry     beta= 0.40
     Davidson diagonalization with overlap
     ethr =  1.00E-02,  avg # of iterations =  3.0

     total cpu time spent up to now is       29.0 secs

     total energy              =    -708.42605179 Ry
     Harris-Foulkes estimate   =    -718.16155436 Ry
     estimated scf accuracy    <      11.27309140 Ry

     iteration #  3     ecut=    80.00 Ry     beta= 0.40
     Davidson diagonalization with overlap
     ethr =  1.00E-02,  avg # of iterations =  9.3

     negative rho (up, down):  6.981E-02 0.000E+00

     total cpu time spent up to now is       42.2 secs

     total energy              =    -710.69656868 Ry
     Harris-Foulkes estimate   =    -711.29071720 Ry
     estimated scf accuracy    <       1.05197467 Ry

     iteration #  4     ecut=    80.00 Ry     beta= 0.40
     Davidson diagonalization with overlap
     ethr =  1.00E-02,  avg # of iterations =  2.6

     negative rho (up, down):  1.532E-01 0.000E+00

     total cpu time spent up to now is       49.1 secs

     total energy              =    -710.85956235 Ry
     Harris-Foulkes estimate   =    -711.09440708 Ry
     estimated scf accuracy    <       0.32766608 Ry

     iteration #  5     ecut=    80.00 Ry     beta= 0.40
     Davidson diagonalization with overlap
     ethr =  3.64E-03,  avg # of iterations =  8.6

     negative rho (up, down):  2.023E-01 0.000E+00

     total cpu time spent up to now is       61.1 secs

     total energy              =    -710.93183834 Ry
     Harris-Foulkes estimate   =    -710.96401281 Ry
     estimated scf accuracy    <       0.06565945 Ry

     iteration #  6     ecut=    80.00 Ry     beta= 0.40
     Davidson diagonalization with overlap
     ethr =  7.30E-04,  avg # of iterations =  4.6

     negative rho (up, down):  1.994E-01 0.000E+00

     total cpu time spent up to now is       69.6 secs

     total energy              =    -710.94453514 Ry
     Harris-Foulkes estimate   =    -710.94474313 Ry
     estimated scf accuracy    <       0.00027516 Ry

     iteration #  7     ecut=    80.00 Ry     beta= 0.40
     Davidson diagonalization with overlap
     c_bands:  1 eigenvalues not converged
     ethr =  3.06E-06,  avg # of iterations = 13.4

     negative rho (up, down):  2.006E-01 0.000E+00

     total cpu time spent up to now is       87.2 secs

     total energy              =    -710.94548806 Ry
     Harris-Foulkes estimate   =    -710.94551910 Ry
     estimated scf accuracy    <       0.00001750 Ry

     iteration #  8     ecut=    80.00 Ry     beta= 0.40
     Davidson diagonalization with overlap
     ethr =  1.94E-07,  avg # of iterations =  4.1

     negative rho (up, down):  2.011E-01 0.000E+00

     total cpu time spent up to now is       96.1 secs

     total energy              =    -710.94549532 Ry
     Harris-Foulkes estimate   =    -710.94550508 Ry
     estimated scf accuracy    <       0.00002148 Ry

     iteration #  9     ecut=    80.00 Ry     beta= 0.40
     Davidson diagonalization with overlap
     ethr =  1.94E-07,  avg # of iterations =  2.0

     negative rho (up, down):  2.008E-01 0.000E+00

     total cpu time spent up to now is      102.6 secs

     total energy              =    -710.94549876 Ry
     Harris-Foulkes estimate   =    -710.94549915 Ry
     estimated scf accuracy    <       0.00000055 Ry

     iteration # 10     ecut=    80.00 Ry     beta= 0.40
     Davidson diagonalization with overlap
     ethr =  6.06E-09,  avg # of iterations =  3.6

     negative rho (up, down):  2.008E-01 0.000E+00

     total cpu time spent up to now is      110.3 secs

     total energy              =    -710.94549887 Ry
     Harris-Foulkes estimate   =    -710.94549887 Ry
     estimated scf accuracy    <          9.4E-09 Ry

     iteration # 11     ecut=    80.00 Ry     beta= 0.40
     Davidson diagonalization with overlap
     ethr =  1.05E-10,  avg # of iterations =  4.8

     negative rho (up, down):  2.008E-01 0.000E+00

     total cpu time spent up to now is      119.6 secs

     End of self-consistent calculation

     Number of k-points >= 100: set verbosity='high' to print the bands.

     the Fermi energy is  -313.8421 ev

!    total energy              =    -710.94549741 Ry
     Harris-Foulkes estimate   =    -710.94549741 Ry
     estimated scf accuracy    <          9.4E-10 Ry

     total all-electron energy =    -16166.031273 Ry

     The total energy is the sum of the following terms:

     one-electron contribution =    -315.46554416 Ry
     hartree contribution      =      54.96553168 Ry
     xc contribution           =     -28.93020496 Ry
     ewald contribution        =     -36.36859938 Ry
     one-center paw contrib.   =    -385.13806496 Ry
     smearing contrib. (-TS)   =      -0.00861564 Ry

     convergence has been achieved in  11 iterations

     negative rho (up, down):  2.008E-01 0.000E+00

     Forces acting on atoms (cartesian axes, Ry/au):

     atom    1 type  1   force =     0.00000000    0.00000000   -0.00000000
     atom    2 type  2   force =     0.00000000    0.00000000    0.00000000
     atom    3 type  3   force =    -0.00000000    0.00000000    0.00000000

     Total force =     0.000000     Total SCF correction =     0.000000


     Computing stress (Cartesian axis) and pressure


     negative rho (up, down):  2.008E-01 0.000E+00
          total   stress  (Ry/bohr**3)                   (kbar)     P=********
  -0.14260818  -0.00000000  -0.00000000     -20978.38     -0.00     -0.00
  -0.00000000  -0.14260818   0.00000000         -0.00 -20978.38      0.00
  -0.00000000   0.00000000  -0.14260818         -0.00      0.00 -20978.38


     Writing output data file NNaCs.save/

     init_run     :      3.57s CPU      3.87s WALL (       1 calls)
     electrons    :    110.27s CPU    113.96s WALL (       1 calls)
     forces       :      1.08s CPU      1.12s WALL (       1 calls)
     stress       :      2.50s CPU      2.53s WALL (       1 calls)

     Called by init_run:
     wfcinit      :      2.91s CPU      2.96s WALL (       1 calls)
     potinit      :      0.14s CPU      0.20s WALL (       1 calls)
     hinit0       :      0.37s CPU      0.51s WALL (       1 calls)

     Called by electrons:
     c_bands      :     94.45s CPU     96.90s WALL (      11 calls)
     sum_band     :     13.67s CPU     14.11s WALL (      11 calls)
     v_of_rho     :      0.34s CPU      0.43s WALL (      12 calls)
     newd         :      1.25s CPU      1.29s WALL (      12 calls)
     PAW_pot      :      0.59s CPU      1.34s WALL (      12 calls)
     mix_rho      :      0.10s CPU      0.11s WALL (      11 calls)

     Called by c_bands:
     init_us_2    :      2.66s CPU      2.74s WALL (    2750 calls)
     cegterg      :     90.96s CPU     93.31s WALL (    1210 calls)

     Called by sum_band:
     sum_band:bec :      0.04s CPU      0.04s WALL (    1210 calls)
     addusdens    :      1.03s CPU      1.05s WALL (      11 calls)

     Called by *egterg:
     h_psi        :     72.20s CPU     74.20s WALL (    8711 calls)
     s_psi        :      4.58s CPU      4.66s WALL (    8711 calls)
     g_psi        :      0.23s CPU      0.23s WALL (    7391 calls)
     cdiaghg      :      1.89s CPU      1.92s WALL (    8601 calls)

     Called by h_psi:
     h_psi:pot    :     71.27s CPU     73.25s WALL (    8711 calls)
     h_psi:calbec :      8.11s CPU      8.35s WALL (    8711 calls)
     vloc_psi     :     57.22s CPU     58.83s WALL (    8711 calls)
     add_vuspsi   :      5.86s CPU      6.01s WALL (    8711 calls)

     General routines
     calbec       :     10.01s CPU     10.34s WALL (   10471 calls)
     fft          :      0.17s CPU      0.21s WALL (     158 calls)
     ffts         :      0.01s CPU      0.01s WALL (      11 calls)
     fftw         :     44.43s CPU     45.72s WALL (   97568 calls)

     Parallel routines
     fft_scatt_xy :      7.40s CPU      7.62s WALL (   97737 calls)
     fft_scatt_yz :      7.74s CPU      8.03s WALL (   97737 calls)

     PWSCF        :  1m59.29s CPU     2m 3.49s WALL


   This run was terminated on:  16: 2:40  23Oct2018            

=------------------------------------------------------------------------------=
   JOB DONE.
=------------------------------------------------------------------------------=
