
     Program PWSCF v.6.3MaX starts on 23Oct2018 at 15:31:48 

     This program is part of the open-source Quantum ESPRESSO suite
     for quantum simulation of materials; please cite
         "P. Giannozzi et al., J. Phys.:Condens. Matter 21 395502 (2009);
         "P. Giannozzi et al., J. Phys.:Condens. Matter 29 465901 (2017);
          URL http://www.quantum-espresso.org", 
     in publications or presentations arising from this work. More details at
     http://www.quantum-espresso.org/quote

     Parallel version (MPI), running on     8 processors

     MPI processes distributed on     1 nodes
     R & G space division:  proc/nbgrp/npool/nimage =       8
     Waiting for input...
     Reading input from standard input
Warning: card &CELL ignored
Warning: card                CELL_DYNAMICS = 'BFGS' , ignored
Warning: card / ignored

     Current dimensions of program PWSCF are:
     Max number of different atomic species (ntypx) = 10
     Max number of k-points (npk) =  40000
     Max angular momentum in pseudopotentials (lmaxx) =  3
               file N.pbe-n-kjpaw_psl.1.0.0.UPF: wavefunction(s)  2S renormalized
               file Na.pbe-spnl-kjpaw_psl.1.0.0.UPF: wavefunction(s)  2P renormalized

     Subspace diagonalization in iterative solution of the eigenvalue problem:
     a serial algorithm will be used


     Parallelization info
     --------------------
     sticks:   dense  smooth     PW     G-vecs:    dense   smooth      PW
     Min         277     277     81                 8634     8634    1346
     Max         278     278     82                 8638     8638    1348
     Sum        2221    2221    649                69089    69089   10777



     bravais-lattice index     =            2
     lattice parameter (alat)  =      14.2000  a.u.
     unit-cell volume          =     715.8220 (a.u.)^3
     number of atoms/cell      =            3
     number of atomic types    =            3
     number of electrons       =         9.00
     number of Kohn-Sham states=            9
     kinetic-energy cutoff     =      80.0000  Ry
     charge density cutoff     =     320.0000  Ry
     convergence threshold     =      1.0E-09
     mixing beta               =       0.4000
     number of iterations used =            8  plain     mixing
     Exchange-correlation      = SLA PW PBX PBC ( 1  4  3  4 0 0)

     celldm(1)=  14.200000  celldm(2)=   0.000000  celldm(3)=   0.000000
     celldm(4)=   0.000000  celldm(5)=   0.000000  celldm(6)=   0.000000

     crystal axes: (cart. coord. in units of alat)
               a(1) = (  -0.500000   0.000000   0.500000 )  
               a(2) = (   0.000000   0.500000   0.500000 )  
               a(3) = (  -0.500000   0.500000   0.000000 )  

     reciprocal axes: (cart. coord. in units 2 pi/alat)
               b(1) = ( -1.000000 -1.000000  1.000000 )  
               b(2) = (  1.000000  1.000000  1.000000 )  
               b(3) = ( -1.000000  1.000000 -1.000000 )  


     PseudoPot. # 1 for N  read from file:
     ./ps/N.pbe-n-kjpaw_psl.1.0.0.UPF
     MD5 check sum: 200139db3989ad6e773ddd42f12fc3a8
     Pseudo is Projector augmented-wave + core cor, Zval =  5.0
     Generated using "atomic" code by A. Dal Corso v.6.3
     Shape of augmentation charge: PSQ
     Using radial grid of 1085 points,  4 beta functions with: 
                l(1) =   0
                l(2) =   0
                l(3) =   1
                l(4) =   1
     Q(r) pseudized with 0 coefficients 


     PseudoPot. # 2 for Na read from file:
     ./ps/Na.pbe-spnl-kjpaw_psl.1.0.0.UPF
     MD5 check sum: 09e782c158f17eb2240230c4112357ee
     Pseudo is Projector augmented-wave + core cor, Zval =  9.0
     Generated using "atomic" code by A. Dal Corso v.6.3
     Shape of augmentation charge: PSQ
     Using radial grid of 1121 points,  4 beta functions with: 
                l(1) =   0
                l(2) =   0
                l(3) =   1
                l(4) =   1
     Q(r) pseudized with 0 coefficients 


     PseudoPot. # 3 for Cs read from file:
     ./ps/Cs.pbe-spnl-kjpaw_psl.1.0.0.UPF
     MD5 check sum: f98336d4a4407e24c1ab1e3bc36275e8
     Pseudo is Projector augmented-wave + core cor, Zval = -5.0
     Generated using "atomic" code by A. Dal Corso v.6.2.2
     Shape of augmentation charge: PSQ
     Using radial grid of 1251 points,  6 beta functions with: 
                l(1) =   0
                l(2) =   0
                l(3) =   1
                l(4) =   1
                l(5) =   2
                l(6) =   2
     Q(r) pseudized with 0 coefficients 


     atomic species   valence    mass     pseudopotential
        N              5.00    14.00670     N ( 1.00)
        Na             9.00    22.98977     Na( 1.00)
        Cs            -5.00   132.90545     Cs( 1.00)

     24 Sym. Ops. (no inversion) found



   Cartesian axes

     site n.     atom                  positions (alat units)
         1           N   tau(   1) = (   0.0000000   0.0000000   0.0000000  )
         2           Na  tau(   2) = (  -0.2500000   0.2500000   0.2500000  )
         3           Cs  tau(   3) = (  -0.7500000   0.7500000   0.7500000  )

     number of k points=   110  Methfessel-Paxton smearing, width (Ry)=  0.0200

     Number of k-points >= 100: set verbosity='high' to print them.

     Dense  grid:    69089 G-vectors     FFT dimensions: (  60,  60,  60)

     Estimated max dynamical RAM per process >      59.35 MB

     Estimated total dynamical RAM >     474.82 MB

     Check: negative/imaginary core charge=   -0.000002    0.000000

     Initial potential from superposition of free atoms

     starting charge   22.95298, renormalised to    9.00000
     Starting wfcs are   14 randomized atomic wfcs
     Checking if some PAW data can be deallocated... 

     total cpu time spent up to now is        5.4 secs

     Self-consistent Calculation

     iteration #  1     ecut=    80.00 Ry     beta= 0.40
     Davidson diagonalization with overlap
     ethr =  1.00E-02,  avg # of iterations =  6.0

     total cpu time spent up to now is       18.4 secs

     total energy              =    -724.24495235 Ry
     Harris-Foulkes estimate   =    -751.71938294 Ry
     estimated scf accuracy    <      47.67522249 Ry

     iteration #  2     ecut=    80.00 Ry     beta= 0.40
     Davidson diagonalization with overlap
     ethr =  1.00E-02,  avg # of iterations =  7.9

     total cpu time spent up to now is       30.8 secs

     total energy              =    -721.07527098 Ry
     Harris-Foulkes estimate   =    -727.88608451 Ry
     estimated scf accuracy    <       8.33396617 Ry

     iteration #  3     ecut=    80.00 Ry     beta= 0.40
     Davidson diagonalization with overlap
     ethr =  1.00E-02,  avg # of iterations =  4.8

     negative rho (up, down):  3.097E-02 0.000E+00

     total cpu time spent up to now is       39.6 secs

     total energy              =    -716.79147002 Ry
     Harris-Foulkes estimate   =    -724.49052085 Ry
     estimated scf accuracy    <      42.31565291 Ry

     iteration #  4     ecut=    80.00 Ry     beta= 0.40
     Davidson diagonalization with overlap
     ethr =  1.00E-02,  avg # of iterations =  2.0

     negative rho (up, down):  9.418E-02 0.000E+00

     total cpu time spent up to now is       45.8 secs

     total energy              =    -723.18514636 Ry
     Harris-Foulkes estimate   =    -723.20622912 Ry
     estimated scf accuracy    <       1.58614277 Ry

     iteration #  5     ecut=    80.00 Ry     beta= 0.40
     Davidson diagonalization with overlap
     ethr =  1.00E-02,  avg # of iterations =  1.2

     negative rho (up, down):  1.187E-01 0.000E+00

     total cpu time spent up to now is       51.3 secs

     total energy              =    -722.76917692 Ry
     Harris-Foulkes estimate   =    -723.21523985 Ry
     estimated scf accuracy    <       1.63831673 Ry

     iteration #  6     ecut=    80.00 Ry     beta= 0.40
     Davidson diagonalization with overlap
     ethr =  1.00E-02,  avg # of iterations =  1.0

     negative rho (up, down):  1.038E-01 0.000E+00

     total cpu time spent up to now is       56.7 secs

     total energy              =    -722.62830488 Ry
     Harris-Foulkes estimate   =    -722.78427852 Ry
     estimated scf accuracy    <       1.05472918 Ry

     iteration #  7     ecut=    80.00 Ry     beta= 0.40
     Davidson diagonalization with overlap
     ethr =  1.00E-02,  avg # of iterations =  1.0

     negative rho (up, down):  9.298E-02 0.000E+00

     total cpu time spent up to now is       62.1 secs

     total energy              =    -722.53004178 Ry
     Harris-Foulkes estimate   =    -722.63133419 Ry
     estimated scf accuracy    <       0.84783307 Ry

     iteration #  8     ecut=    80.00 Ry     beta= 0.40
     Davidson diagonalization with overlap
     ethr =  9.42E-03,  avg # of iterations =  1.0

     negative rho (up, down):  7.814E-02 0.000E+00

     total cpu time spent up to now is       67.5 secs

     total energy              =    -722.41127726 Ry
     Harris-Foulkes estimate   =    -722.53134227 Ry
     estimated scf accuracy    <       0.71379894 Ry

     iteration #  9     ecut=    80.00 Ry     beta= 0.40
     Davidson diagonalization with overlap
     ethr =  7.93E-03,  avg # of iterations =  1.0

     negative rho (up, down):  6.495E-02 0.000E+00

     total cpu time spent up to now is       73.0 secs

     total energy              =    -722.43615726 Ry
     Harris-Foulkes estimate   =    -722.41697145 Ry
     estimated scf accuracy    <       0.04787345 Ry

     iteration # 10     ecut=    80.00 Ry     beta= 0.40
     Davidson diagonalization with overlap
     ethr =  5.32E-04,  avg # of iterations =  1.0

     negative rho (up, down):  8.741E-03 0.000E+00

     total cpu time spent up to now is       78.4 secs

     total energy              =    -722.78755005 Ry
     Harris-Foulkes estimate   =    -722.46147399 Ry
     estimated scf accuracy    <       0.23000598 Ry

     iteration # 11     ecut=    80.00 Ry     beta= 0.40
     Davidson diagonalization with overlap
     ethr =  5.32E-04,  avg # of iterations =  3.3

     negative rho (up, down):  5.404E-02 0.000E+00

     total cpu time spent up to now is       86.4 secs

     total energy              =    -721.76230661 Ry
     Harris-Foulkes estimate   =    -724.67772348 Ry
     estimated scf accuracy    <      41.97365736 Ry

     iteration # 12     ecut=    80.00 Ry     beta= 0.40
     Davidson diagonalization with overlap
     ethr =  5.32E-04,  avg # of iterations =  2.1

     negative rho (up, down):  5.604E-02 0.000E+00

     total cpu time spent up to now is       93.1 secs

     total energy              =    -722.50931334 Ry
     Harris-Foulkes estimate   =    -722.50180262 Ry
     estimated scf accuracy    <       0.28910184 Ry

     iteration # 13     ecut=    80.00 Ry     beta= 0.40
     Davidson diagonalization with overlap
     ethr =  5.32E-04,  avg # of iterations =  1.0

     negative rho (up, down):  5.732E-02 0.000E+00

     total cpu time spent up to now is       98.5 secs

     total energy              =    -722.48034566 Ry
     Harris-Foulkes estimate   =    -722.50952716 Ry
     estimated scf accuracy    <       0.30008123 Ry

     iteration # 14     ecut=    80.00 Ry     beta= 0.40
     Davidson diagonalization with overlap
     ethr =  5.32E-04,  avg # of iterations =  1.0

     negative rho (up, down):  5.725E-02 0.000E+00

     total cpu time spent up to now is      103.8 secs

     total energy              =    -722.48494052 Ry
     Harris-Foulkes estimate   =    -722.48065344 Ry
     estimated scf accuracy    <       0.25957432 Ry

     iteration # 15     ecut=    80.00 Ry     beta= 0.40
     Davidson diagonalization with overlap
     ethr =  5.32E-04,  avg # of iterations =  1.0

     negative rho (up, down):  4.408E-02 0.000E+00

     total cpu time spent up to now is      109.2 secs

     total energy              =    -722.51625324 Ry
     Harris-Foulkes estimate   =    -722.48500237 Ry
     estimated scf accuracy    <       0.26459980 Ry

     iteration # 16     ecut=    80.00 Ry     beta= 0.40
     Davidson diagonalization with overlap
     ethr =  5.32E-04,  avg # of iterations =  1.0

     negative rho (up, down):  1.841E-02 0.000E+00

     total cpu time spent up to now is      114.7 secs

     total energy              =    -722.57297349 Ry
     Harris-Foulkes estimate   =    -722.51644486 Ry
     estimated scf accuracy    <       0.30296972 Ry

     iteration # 17     ecut=    80.00 Ry     beta= 0.40
     Davidson diagonalization with overlap
     ethr =  5.32E-04,  avg # of iterations =  1.0

     negative rho (up, down):  5.183E-02 0.000E+00

     total cpu time spent up to now is      120.0 secs

     total energy              =    -722.00275228 Ry
     Harris-Foulkes estimate   =    -722.58899136 Ry
     estimated scf accuracy    <       8.26198821 Ry

     iteration # 18     ecut=    80.00 Ry     beta= 0.40
     Davidson diagonalization with overlap
     ethr =  5.32E-04,  avg # of iterations =  1.0

     negative rho (up, down):  5.049E-01 0.000E+00

     total cpu time spent up to now is      125.3 secs

     total energy              =    -725.28797866 Ry
     Harris-Foulkes estimate   =    -722.46369256 Ry
     estimated scf accuracy    <       0.23586199 Ry

     iteration # 19     ecut=    80.00 Ry     beta= 0.40
     Davidson diagonalization with overlap
     ethr =  5.32E-04,  avg # of iterations =  8.0

     negative rho (up, down):  3.146E-01 0.000E+00

     total cpu time spent up to now is      138.1 secs

     total energy              =    -734.12935959 Ry
     Harris-Foulkes estimate   =    -738.52529777 Ry
     estimated scf accuracy    <      78.08131192 Ry

     iteration # 20     ecut=    80.00 Ry     beta= 0.40
     Davidson diagonalization with overlap
     ethr =  5.32E-04,  avg # of iterations =  3.2

     negative rho (up, down):  7.931E-02 0.000E+00

     total cpu time spent up to now is      145.6 secs

     total energy              =    -728.15671373 Ry
     Harris-Foulkes estimate   =    -734.25399745 Ry
     estimated scf accuracy    <      54.51010977 Ry

     iteration # 21     ecut=    80.00 Ry     beta= 0.40
     Davidson diagonalization with overlap
     ethr =  5.32E-04,  avg # of iterations =  5.8

     negative rho (up, down):  1.422E-02 0.000E+00

     total cpu time spent up to now is      155.9 secs

     total energy              =    -718.74584113 Ry
     Harris-Foulkes estimate   =    -728.18291424 Ry
     estimated scf accuracy    <      46.99640029 Ry

     iteration # 22     ecut=    80.00 Ry     beta= 0.40
     Davidson diagonalization with overlap
     ethr =  5.32E-04,  avg # of iterations =  5.3

     negative rho (up, down):  1.228E-01 0.000E+00

     total cpu time spent up to now is      165.9 secs

     total energy              =    -723.12411319 Ry
     Harris-Foulkes estimate   =    -722.65926135 Ry
     estimated scf accuracy    <       0.90183663 Ry

     iteration # 23     ecut=    80.00 Ry     beta= 0.40
     Davidson diagonalization with overlap
     ethr =  5.32E-04,  avg # of iterations =  2.0

     negative rho (up, down):  3.508E-02 0.000E+00

     total cpu time spent up to now is      172.2 secs

     total energy              =    -722.47637511 Ry
     Harris-Foulkes estimate   =    -723.13012246 Ry
     estimated scf accuracy    <       1.50577380 Ry

     iteration # 24     ecut=    80.00 Ry     beta= 0.40
     Davidson diagonalization with overlap
     ethr =  5.32E-04,  avg # of iterations =  2.0

     negative rho (up, down):  2.815E-02 0.000E+00

     total cpu time spent up to now is      178.8 secs

     total energy              =    -722.37494322 Ry
     Harris-Foulkes estimate   =    -722.49694848 Ry
     estimated scf accuracy    <       0.64286466 Ry

     iteration # 25     ecut=    80.00 Ry     beta= 0.40
     Davidson diagonalization with overlap
     ethr =  5.32E-04,  avg # of iterations =  1.0

     negative rho (up, down):  4.343E-02 0.000E+00

     total cpu time spent up to now is      184.1 secs

     total energy              =    -722.42172874 Ry
     Harris-Foulkes estimate   =    -722.44098649 Ry
     estimated scf accuracy    <       0.19433598 Ry

     iteration # 26     ecut=    80.00 Ry     beta= 0.40
     Davidson diagonalization with overlap
     ethr =  5.32E-04,  avg # of iterations =  1.0

     negative rho (up, down):  5.218E-02 0.000E+00

     total cpu time spent up to now is      189.4 secs

     total energy              =    -722.39363554 Ry
     Harris-Foulkes estimate   =    -722.42089246 Ry
     estimated scf accuracy    <       0.18471376 Ry

     iteration # 27     ecut=    80.00 Ry     beta= 0.40
     Davidson diagonalization with overlap
     ethr =  5.32E-04,  avg # of iterations =  1.0

     negative rho (up, down):  5.408E-02 0.000E+00

     total cpu time spent up to now is      194.9 secs

     total energy              =    -722.39467630 Ry
     Harris-Foulkes estimate   =    -722.46495025 Ry
     estimated scf accuracy    <       0.60842386 Ry

     iteration # 28     ecut=    80.00 Ry     beta= 0.40
     Davidson diagonalization with overlap
     ethr =  5.32E-04,  avg # of iterations =  1.0

     negative rho (up, down):  5.004E-02 0.000E+00

     total cpu time spent up to now is      200.2 secs

     total energy              =    -722.46128169 Ry
     Harris-Foulkes estimate   =    -722.42908909 Ry
     estimated scf accuracy    <       0.19438705 Ry

     iteration # 29     ecut=    80.00 Ry     beta= 0.40
     Davidson diagonalization with overlap
     ethr =  5.32E-04,  avg # of iterations =  1.0

     negative rho (up, down):  5.381E-02 0.000E+00

     total cpu time spent up to now is      205.6 secs

     total energy              =    -722.45034795 Ry
     Harris-Foulkes estimate   =    -722.46040770 Ry
     estimated scf accuracy    <       0.22310377 Ry

     iteration # 30     ecut=    80.00 Ry     beta= 0.40
     Davidson diagonalization with overlap
     ethr =  5.32E-04,  avg # of iterations =  1.0

     negative rho (up, down):  8.436E-05 0.000E+00

     total cpu time spent up to now is      210.9 secs

     total energy              =    -723.37589856 Ry
     Harris-Foulkes estimate   =    -722.45042990 Ry
     estimated scf accuracy    <       0.21184306 Ry

     iteration # 31     ecut=    80.00 Ry     beta= 0.40
     Davidson diagonalization with overlap
     ethr =  5.32E-04,  avg # of iterations =  5.4

     negative rho (up, down):  4.980E-02 0.000E+00

     total cpu time spent up to now is      220.1 secs

     total energy              =    -721.63003195 Ry
     Harris-Foulkes estimate   =    -728.93723323 Ry
     estimated scf accuracy    <      47.05223916 Ry

     iteration # 32     ecut=    80.00 Ry     beta= 0.40
     Davidson diagonalization with overlap
     ethr =  5.32E-04,  avg # of iterations =  4.5

     negative rho (up, down):  5.051E-02 0.000E+00

     total cpu time spent up to now is      229.6 secs

     total energy              =    -722.48829416 Ry
     Harris-Foulkes estimate   =    -722.49441296 Ry
     estimated scf accuracy    <       0.27512201 Ry

     iteration # 33     ecut=    80.00 Ry     beta= 0.40
     Davidson diagonalization with overlap
     ethr =  5.32E-04,  avg # of iterations =  1.0

     negative rho (up, down):  5.417E-02 0.000E+00

     total cpu time spent up to now is      235.0 secs

     total energy              =    -722.47228299 Ry
     Harris-Foulkes estimate   =    -722.48847102 Ry
     estimated scf accuracy    <       0.26744937 Ry

     iteration # 34     ecut=    80.00 Ry     beta= 0.40
     Davidson diagonalization with overlap
     ethr =  5.32E-04,  avg # of iterations =  1.0

     negative rho (up, down):  5.688E-02 0.000E+00

     total cpu time spent up to now is      240.3 secs

     total energy              =    -722.48986690 Ry
     Harris-Foulkes estimate   =    -722.47244060 Ry
     estimated scf accuracy    <       0.24561578 Ry

     iteration # 35     ecut=    80.00 Ry     beta= 0.40
     Davidson diagonalization with overlap
     ethr =  5.32E-04,  avg # of iterations =  1.0

     negative rho (up, down):  5.906E-02 0.000E+00

     total cpu time spent up to now is      245.6 secs

     total energy              =    -722.40484126 Ry
     Harris-Foulkes estimate   =    -722.48994123 Ry
     estimated scf accuracy    <       0.26977422 Ry

     iteration # 36     ecut=    80.00 Ry     beta= 0.40
     Davidson diagonalization with overlap
     ethr =  5.32E-04,  avg # of iterations =  1.0

     negative rho (up, down):  5.039E-02 0.000E+00

     total cpu time spent up to now is      250.9 secs

     total energy              =    -722.32800172 Ry
     Harris-Foulkes estimate   =    -722.43555856 Ry
     estimated scf accuracy    <       0.86781435 Ry

     iteration # 37     ecut=    80.00 Ry     beta= 0.40
     Davidson diagonalization with overlap
     ethr =  5.32E-04,  avg # of iterations =  1.0

     negative rho (up, down):  5.873E-02 0.000E+00

     total cpu time spent up to now is      256.3 secs

     total energy              =    -722.46973670 Ry
     Harris-Foulkes estimate   =    -722.45484947 Ry
     estimated scf accuracy    <       0.21597130 Ry

     iteration # 38     ecut=    80.00 Ry     beta= 0.40
     Davidson diagonalization with overlap
     ethr =  5.32E-04,  avg # of iterations =  1.0

     negative rho (up, down):  3.920E-02 0.000E+00

     total cpu time spent up to now is      261.7 secs

     total energy              =    -722.56784400 Ry
     Harris-Foulkes estimate   =    -722.46992627 Ry
     estimated scf accuracy    <       0.24159164 Ry

     iteration # 39     ecut=    80.00 Ry     beta= 0.40
     Davidson diagonalization with overlap
     ethr =  5.32E-04,  avg # of iterations =  1.0

     negative rho (up, down):  4.376E-02 0.000E+00

     total cpu time spent up to now is      267.1 secs

     total energy              =    -722.43584972 Ry
     Harris-Foulkes estimate   =    -722.57777573 Ry
     estimated scf accuracy    <       5.09038467 Ry

     iteration # 40     ecut=    80.00 Ry     beta= 0.40
     Davidson diagonalization with overlap
     ethr =  5.32E-04,  avg # of iterations =  1.0

     negative rho (up, down):  2.893E-02 0.000E+00

     total cpu time spent up to now is      272.5 secs

     total energy              =    -722.67640930 Ry
     Harris-Foulkes estimate   =    -722.53425526 Ry
     estimated scf accuracy    <       0.33298688 Ry

     iteration # 41     ecut=    80.00 Ry     beta= 0.40
     Davidson diagonalization with overlap
     ethr =  5.32E-04,  avg # of iterations =  1.0

     negative rho (up, down):  4.793E-02 0.000E+00

     total cpu time spent up to now is      277.9 secs

     total energy              =    -721.05694157 Ry
     Harris-Foulkes estimate   =    -723.57453040 Ry
     estimated scf accuracy    <      40.64257157 Ry

     iteration # 42     ecut=    80.00 Ry     beta= 0.40
     Davidson diagonalization with overlap
     ethr =  5.32E-04,  avg # of iterations =  2.0

     negative rho (up, down):  4.849E-02 0.000E+00

     total cpu time spent up to now is      284.0 secs

     total energy              =    -722.42255156 Ry
     Harris-Foulkes estimate   =    -722.44855300 Ry
     estimated scf accuracy    <       0.20950302 Ry

     iteration # 43     ecut=    80.00 Ry     beta= 0.40
     Davidson diagonalization with overlap
     ethr =  5.32E-04,  avg # of iterations =  1.0

     negative rho (up, down):  4.851E-02 0.000E+00

     total cpu time spent up to now is      289.3 secs

     total energy              =    -722.41737186 Ry
     Harris-Foulkes estimate   =    -722.42228894 Ry
     estimated scf accuracy    <       0.24328886 Ry

     iteration # 44     ecut=    80.00 Ry     beta= 0.40
     Davidson diagonalization with overlap
     ethr =  5.32E-04,  avg # of iterations =  1.0

     negative rho (up, down):  5.085E-02 0.000E+00

     total cpu time spent up to now is      294.7 secs

     total energy              =    -722.44556243 Ry
     Harris-Foulkes estimate   =    -722.41831335 Ry
     estimated scf accuracy    <       0.07852500 Ry

     iteration # 45     ecut=    80.00 Ry     beta= 0.40
     Davidson diagonalization with overlap
     ethr =  5.32E-04,  avg # of iterations =  1.0

     negative rho (up, down):  3.688E-02 0.000E+00

     total cpu time spent up to now is      300.1 secs

     total energy              =    -722.40090602 Ry
     Harris-Foulkes estimate   =    -722.46055384 Ry
     estimated scf accuracy    <       0.22511410 Ry

     iteration # 46     ecut=    80.00 Ry     beta= 0.40
     Davidson diagonalization with overlap
     ethr =  5.32E-04,  avg # of iterations =  1.0

     negative rho (up, down):  3.711E-02 0.000E+00

     total cpu time spent up to now is      305.5 secs

     total energy              =    -722.36999410 Ry
     Harris-Foulkes estimate   =    -722.44799885 Ry
     estimated scf accuracy    <       0.60618936 Ry

     iteration # 47     ecut=    80.00 Ry     beta= 0.40
     Davidson diagonalization with overlap
     ethr =  5.32E-04,  avg # of iterations =  1.0

     negative rho (up, down):  4.602E-02 0.000E+00

     total cpu time spent up to now is      310.8 secs

     total energy              =    -722.36200743 Ry
     Harris-Foulkes estimate   =    -722.44195517 Ry
     estimated scf accuracy    <       0.19120270 Ry

     iteration # 48     ecut=    80.00 Ry     beta= 0.40
     Davidson diagonalization with overlap
     ethr =  5.32E-04,  avg # of iterations =  1.0

     negative rho (up, down):  3.620E-02 0.000E+00

     total cpu time spent up to now is      316.2 secs

     total energy              =    -722.46377456 Ry
     Harris-Foulkes estimate   =    -722.54822602 Ry
     estimated scf accuracy    <       0.73105810 Ry

     iteration # 49     ecut=    80.00 Ry     beta= 0.40
     Davidson diagonalization with overlap
     ethr =  5.32E-04,  avg # of iterations =  1.0

     negative rho (up, down):  3.604E-02 0.000E+00

     total cpu time spent up to now is      321.6 secs

     total energy              =    -722.53247839 Ry
     Harris-Foulkes estimate   =    -722.46436573 Ry
     estimated scf accuracy    <       0.62278075 Ry

     iteration # 50     ecut=    80.00 Ry     beta= 0.40
     Davidson diagonalization with overlap
     ethr =  5.32E-04,  avg # of iterations =  1.0

     negative rho (up, down):  5.219E-05 0.000E+00

     total cpu time spent up to now is      327.0 secs

     total energy              =    -721.88847679 Ry
     Harris-Foulkes estimate   =    -722.53286148 Ry
     estimated scf accuracy    <       0.71299373 Ry

     iteration # 51     ecut=    80.00 Ry     beta= 0.40
     Davidson diagonalization with overlap
     ethr =  5.32E-04,  avg # of iterations =  6.0

     negative rho (up, down):  4.146E-02 0.000E+00

     total cpu time spent up to now is      337.1 secs

     total energy              =    -720.59485699 Ry
     Harris-Foulkes estimate   =    -729.93258112 Ry
     estimated scf accuracy    <      48.21861289 Ry

     iteration # 52     ecut=    80.00 Ry     beta= 0.40
     Davidson diagonalization with overlap
     ethr =  5.32E-04,  avg # of iterations =  5.2

     negative rho (up, down):  4.061E-02 0.000E+00

     total cpu time spent up to now is      347.2 secs

     total energy              =    -722.49944054 Ry
     Harris-Foulkes estimate   =    -722.42106000 Ry
     estimated scf accuracy    <       0.22136170 Ry

     iteration # 53     ecut=    80.00 Ry     beta= 0.40
     Davidson diagonalization with overlap
     ethr =  5.32E-04,  avg # of iterations =  1.0

     negative rho (up, down):  3.822E-02 0.000E+00

     total cpu time spent up to now is      352.6 secs

     total energy              =    -722.50707264 Ry
     Harris-Foulkes estimate   =    -722.49235279 Ry
     estimated scf accuracy    <       0.26542806 Ry

     iteration # 54     ecut=    80.00 Ry     beta= 0.40
     Davidson diagonalization with overlap
     ethr =  5.32E-04,  avg # of iterations =  1.0

     negative rho (up, down):  4.202E-02 0.000E+00

     total cpu time spent up to now is      357.9 secs

     total energy              =    -722.49134685 Ry
     Harris-Foulkes estimate   =    -722.50731827 Ry
     estimated scf accuracy    <       0.28485518 Ry

     iteration # 55     ecut=    80.00 Ry     beta= 0.40
     Davidson diagonalization with overlap
     ethr =  5.32E-04,  avg # of iterations =  1.0

     negative rho (up, down):  5.073E-02 0.000E+00

     total cpu time spent up to now is      363.2 secs

     total energy              =    -722.42579606 Ry
     Harris-Foulkes estimate   =    -722.49139796 Ry
     estimated scf accuracy    <       0.26770186 Ry

     iteration # 56     ecut=    80.00 Ry     beta= 0.40
     Davidson diagonalization with overlap
     ethr =  5.32E-04,  avg # of iterations =  1.0

     negative rho (up, down):  3.801E-02 0.000E+00

     total cpu time spent up to now is      368.5 secs

     total energy              =    -722.59130830 Ry
     Harris-Foulkes estimate   =    -722.42704729 Ry
     estimated scf accuracy    <       0.20962850 Ry

     iteration # 57     ecut=    80.00 Ry     beta= 0.40
     Davidson diagonalization with overlap
     ethr =  5.32E-04,  avg # of iterations =  1.0

     negative rho (up, down):  5.414E-02 0.000E+00

     total cpu time spent up to now is      373.9 secs

     total energy              =    -718.89357288 Ry
     Harris-Foulkes estimate   =    -722.69811448 Ry
     estimated scf accuracy    <      37.42511397 Ry

     iteration # 58     ecut=    80.00 Ry     beta= 0.40
     Davidson diagonalization with overlap
     ethr =  5.32E-04,  avg # of iterations =  2.0

     negative rho (up, down):  5.738E-02 0.000E+00

     total cpu time spent up to now is      381.2 secs

     total energy              =    -722.50266443 Ry
     Harris-Foulkes estimate   =    -722.66955875 Ry
     estimated scf accuracy    <       0.90605174 Ry

     iteration # 59     ecut=    80.00 Ry     beta= 0.40
     Davidson diagonalization with overlap
     ethr =  5.32E-04,  avg # of iterations =  1.0

     negative rho (up, down):  5.637E-02 0.000E+00

     total cpu time spent up to now is      386.6 secs

     total energy              =    -722.53584591 Ry
     Harris-Foulkes estimate   =    -722.50531917 Ry
     estimated scf accuracy    <       0.67880189 Ry

     iteration # 60     ecut=    80.00 Ry     beta= 0.40
     Davidson diagonalization with overlap
     ethr =  5.32E-04,  avg # of iterations =  1.0

     negative rho (up, down):  2.531E-02 0.000E+00

     total cpu time spent up to now is      392.0 secs

     total energy              =    -722.24076589 Ry
     Harris-Foulkes estimate   =    -722.53601153 Ry
     estimated scf accuracy    <       0.71721640 Ry

     iteration # 61     ecut=    80.00 Ry     beta= 0.40
     Davidson diagonalization with overlap
     ethr =  5.32E-04,  avg # of iterations =  2.0

     negative rho (up, down):  2.140E-02 0.000E+00

     total cpu time spent up to now is      398.2 secs

     total energy              =    -722.52952392 Ry
     Harris-Foulkes estimate   =    -722.53318816 Ry
     estimated scf accuracy    <       0.31983739 Ry

     iteration # 62     ecut=    80.00 Ry     beta= 0.40
     Davidson diagonalization with overlap
     ethr =  5.32E-04,  avg # of iterations =  1.0

     negative rho (up, down):  1.829E-02 0.000E+00

     total cpu time spent up to now is      403.7 secs

     total energy              =    -722.45691919 Ry
     Harris-Foulkes estimate   =    -722.52971878 Ry
     estimated scf accuracy    <       0.31278184 Ry

     iteration # 63     ecut=    80.00 Ry     beta= 0.40
     Davidson diagonalization with overlap
     ethr =  5.32E-04,  avg # of iterations =  1.0

     negative rho (up, down):  1.841E-02 0.000E+00

     total cpu time spent up to now is      409.1 secs

     total energy              =    -722.46586586 Ry
     Harris-Foulkes estimate   =    -722.45845470 Ry
     estimated scf accuracy    <       0.21097466 Ry

     iteration # 64     ecut=    80.00 Ry     beta= 0.40
     Davidson diagonalization with overlap
     ethr =  5.32E-04,  avg # of iterations =  1.0

     negative rho (up, down):  2.132E-02 0.000E+00

     total cpu time spent up to now is      414.4 secs

     total energy              =    -722.44652177 Ry
     Harris-Foulkes estimate   =    -722.46595072 Ry
     estimated scf accuracy    <       0.22055689 Ry

     iteration # 65     ecut=    80.00 Ry     beta= 0.40
     Davidson diagonalization with overlap
     ethr =  5.32E-04,  avg # of iterations =  1.0

     negative rho (up, down):  4.533E-02 0.000E+00

     total cpu time spent up to now is      419.8 secs

     total energy              =    -722.33844262 Ry
     Harris-Foulkes estimate   =    -722.44666968 Ry
     estimated scf accuracy    <       0.19426273 Ry

     iteration # 66     ecut=    80.00 Ry     beta= 0.40
     Davidson diagonalization with overlap
     ethr =  5.32E-04,  avg # of iterations =  2.0

     negative rho (up, down):  7.248E-05 0.000E+00

     total cpu time spent up to now is      425.9 secs

     total energy              =    -721.92071644 Ry
     Harris-Foulkes estimate   =    -722.62090981 Ry
     estimated scf accuracy    <       0.84100975 Ry

     iteration # 67     ecut=    80.00 Ry     beta= 0.40
     Davidson diagonalization with overlap
     ethr =  5.32E-04,  avg # of iterations =  4.1

     negative rho (up, down):  2.344E-02 0.000E+00

     total cpu time spent up to now is      434.7 secs

     total energy              =    -722.42123657 Ry
     Harris-Foulkes estimate   =    -726.65163392 Ry
     estimated scf accuracy    <      44.39638723 Ry

     iteration # 68     ecut=    80.00 Ry     beta= 0.40
     Davidson diagonalization with overlap
     ethr =  5.32E-04,  avg # of iterations =  2.9

     negative rho (up, down):  3.495E-02 0.000E+00

     total cpu time spent up to now is      441.9 secs

     total energy              =    -722.48387885 Ry
     Harris-Foulkes estimate   =    -722.55827823 Ry
     estimated scf accuracy    <       0.37519861 Ry

     iteration # 69     ecut=    80.00 Ry     beta= 0.40
     Davidson diagonalization with overlap
     ethr =  5.32E-04,  avg # of iterations =  1.0

     negative rho (up, down):  6.690E-02 0.000E+00

     total cpu time spent up to now is      447.2 secs

     total energy              =    -722.37504091 Ry
     Harris-Foulkes estimate   =    -722.48993597 Ry
     estimated scf accuracy    <       0.27026195 Ry

     iteration # 70     ecut=    80.00 Ry     beta= 0.40
     Davidson diagonalization with overlap
     ethr =  5.32E-04,  avg # of iterations =  2.0

     negative rho (up, down):  4.052E-02 0.000E+00

     total cpu time spent up to now is      453.4 secs

     total energy              =    -722.31236762 Ry
     Harris-Foulkes estimate   =    -722.49452502 Ry
     estimated scf accuracy    <       0.65755023 Ry

     iteration # 71     ecut=    80.00 Ry     beta= 0.40
     Davidson diagonalization with overlap
     ethr =  5.32E-04,  avg # of iterations =  2.0

     negative rho (up, down):  6.011E-02 0.000E+00

     total cpu time spent up to now is      459.6 secs

     total energy              =    -722.40924985 Ry
     Harris-Foulkes estimate   =    -722.47841616 Ry
     estimated scf accuracy    <       0.24746195 Ry

     iteration # 72     ecut=    80.00 Ry     beta= 0.40
     Davidson diagonalization with overlap
     ethr =  5.32E-04,  avg # of iterations =  1.0

     negative rho (up, down):  2.779E-02 0.000E+00

     total cpu time spent up to now is      464.9 secs

     total energy              =    -722.33200600 Ry
     Harris-Foulkes estimate   =    -722.42555004 Ry
     estimated scf accuracy    <       0.79890344 Ry

     iteration # 73     ecut=    80.00 Ry     beta= 0.40
     Davidson diagonalization with overlap
     ethr =  5.32E-04,  avg # of iterations =  1.0

     negative rho (up, down):  2.837E-02 0.000E+00

     total cpu time spent up to now is      470.2 secs

     total energy              =    -722.45434790 Ry
     Harris-Foulkes estimate   =    -722.45472081 Ry
     estimated scf accuracy    <       0.20654862 Ry

     iteration # 74     ecut=    80.00 Ry     beta= 0.40
     Davidson diagonalization with overlap
     ethr =  5.32E-04,  avg # of iterations =  1.0

     negative rho (up, down):  3.607E-02 0.000E+00

     total cpu time spent up to now is      475.7 secs

     total energy              =    -722.44517989 Ry
     Harris-Foulkes estimate   =    -722.45440881 Ry
     estimated scf accuracy    <       0.20710238 Ry

     iteration # 75     ecut=    80.00 Ry     beta= 0.40
     Davidson diagonalization with overlap
     ethr =  5.32E-04,  avg # of iterations =  1.0

     negative rho (up, down):  3.770E-02 0.000E+00

     total cpu time spent up to now is      481.1 secs

     total energy              =    -722.44778673 Ry
     Harris-Foulkes estimate   =    -722.44520387 Ry
     estimated scf accuracy    <       0.19848546 Ry

     iteration # 76     ecut=    80.00 Ry     beta= 0.40
     Davidson diagonalization with overlap
     ethr =  5.32E-04,  avg # of iterations =  1.0

     negative rho (up, down):  1.037E-04 0.000E+00

     total cpu time spent up to now is      486.5 secs

     total energy              =    -722.61648667 Ry
     Harris-Foulkes estimate   =    -722.44779763 Ry
     estimated scf accuracy    <       0.20227152 Ry

     iteration # 77     ecut=    80.00 Ry     beta= 0.40
     Davidson diagonalization with overlap
     ethr =  5.32E-04,  avg # of iterations =  1.0

     negative rho (up, down):  3.090E-02 0.000E+00

     total cpu time spent up to now is      491.8 secs

     total energy              =    -720.53400778 Ry
     Harris-Foulkes estimate   =    -723.03651216 Ry
     estimated scf accuracy    <      40.09341452 Ry

     iteration # 78     ecut=    80.00 Ry     beta= 0.40
     Davidson diagonalization with overlap
     ethr =  5.32E-04,  avg # of iterations =  2.0

     negative rho (up, down):  4.261E-02 0.000E+00

     total cpu time spent up to now is      498.1 secs

     total energy              =    -722.40364968 Ry
     Harris-Foulkes estimate   =    -722.41921034 Ry
     estimated scf accuracy    <       0.16148020 Ry

     iteration # 79     ecut=    80.00 Ry     beta= 0.40
     Davidson diagonalization with overlap
     ethr =  5.32E-04,  avg # of iterations =  1.0

     negative rho (up, down):  2.929E-02 0.000E+00

     total cpu time spent up to now is      503.5 secs

     total energy              =    -722.41096133 Ry
     Harris-Foulkes estimate   =    -722.42975050 Ry
     estimated scf accuracy    <       0.18714645 Ry

     iteration # 80     ecut=    80.00 Ry     beta= 0.40
     Davidson diagonalization with overlap
     ethr =  5.32E-04,  avg # of iterations =  1.0

     negative rho (up, down):  1.932E-02 0.000E+00

     total cpu time spent up to now is      508.9 secs

     total energy              =    -722.39100123 Ry
     Harris-Foulkes estimate   =    -722.42519571 Ry
     estimated scf accuracy    <       0.74144098 Ry

     iteration # 81     ecut=    80.00 Ry     beta= 0.40
     Davidson diagonalization with overlap
     ethr =  5.32E-04,  avg # of iterations =  1.0

     negative rho (up, down):  2.239E-02 0.000E+00

     total cpu time spent up to now is      514.3 secs

     total energy              =    -722.43837942 Ry
     Harris-Foulkes estimate   =    -722.42688345 Ry
     estimated scf accuracy    <       0.19881537 Ry

     iteration # 82     ecut=    80.00 Ry     beta= 0.40
     Davidson diagonalization with overlap
     ethr =  5.32E-04,  avg # of iterations =  1.0

     negative rho (up, down):  2.647E-02 0.000E+00

     total cpu time spent up to now is      519.6 secs

     total energy              =    -722.52284348 Ry
     Harris-Foulkes estimate   =    -722.43759788 Ry
     estimated scf accuracy    <       0.18024700 Ry

     iteration # 83     ecut=    80.00 Ry     beta= 0.40
     Davidson diagonalization with overlap
     ethr =  5.32E-04,  avg # of iterations =  1.0

     negative rho (up, down):  4.207E-02 0.000E+00

     total cpu time spent up to now is      525.0 secs

     total energy              =    -722.49698707 Ry
     Harris-Foulkes estimate   =    -722.52553279 Ry
     estimated scf accuracy    <       0.30697227 Ry

     iteration # 84     ecut=    80.00 Ry     beta= 0.40
     Davidson diagonalization with overlap
     ethr =  5.32E-04,  avg # of iterations =  1.0

     negative rho (up, down):  2.424E-02 0.000E+00

     total cpu time spent up to now is      530.4 secs

     total energy              =    -722.44599189 Ry
     Harris-Foulkes estimate   =    -722.49723807 Ry
     estimated scf accuracy    <       0.27487510 Ry

     iteration # 85     ecut=    80.00 Ry     beta= 0.40
     Davidson diagonalization with overlap
     ethr =  5.32E-04,  avg # of iterations =  1.0

     negative rho (up, down):  2.188E-02 0.000E+00

     total cpu time spent up to now is      535.8 secs

     total energy              =    -722.44990273 Ry
     Harris-Foulkes estimate   =    -722.44709269 Ry
     estimated scf accuracy    <       0.19676413 Ry

     iteration # 86     ecut=    80.00 Ry     beta= 0.40
     Davidson diagonalization with overlap
     ethr =  5.32E-04,  avg # of iterations =  1.0

     negative rho (up, down):  1.276E-04 0.000E+00

     total cpu time spent up to now is      541.1 secs

     total energy              =    -722.58316932 Ry
     Harris-Foulkes estimate   =    -722.44995616 Ry
     estimated scf accuracy    <       0.19963978 Ry

     iteration # 87     ecut=    80.00 Ry     beta= 0.40
     Davidson diagonalization with overlap
     ethr =  5.32E-04,  avg # of iterations =  1.0

     negative rho (up, down):  1.281E-02 0.000E+00

     total cpu time spent up to now is      546.5 secs

     total energy              =    -721.39245034 Ry
     Harris-Foulkes estimate   =    -722.67249260 Ry
     estimated scf accuracy    <      32.08982304 Ry

     iteration # 88     ecut=    80.00 Ry     beta= 0.40
     Davidson diagonalization with overlap
     ethr =  5.32E-04,  avg # of iterations =  1.0

     negative rho (up, down):  1.897E-02 0.000E+00

     total cpu time spent up to now is      551.9 secs

     total energy              =    -722.45899687 Ry
     Harris-Foulkes estimate   =    -722.46322356 Ry
     estimated scf accuracy    <       0.21752558 Ry

     iteration # 89     ecut=    80.00 Ry     beta= 0.40
     Davidson diagonalization with overlap
     ethr =  5.32E-04,  avg # of iterations =  1.0

     negative rho (up, down):  4.881E-04 0.000E+00

     total cpu time spent up to now is      557.3 secs

     total energy              =    -722.73889511 Ry
     Harris-Foulkes estimate   =    -722.45920385 Ry
     estimated scf accuracy    <       0.21311556 Ry

     iteration # 90     ecut=    80.00 Ry     beta= 0.40
     Davidson diagonalization with overlap
     ethr =  5.32E-04,  avg # of iterations =  2.0

     negative rho (up, down):  8.976E-03 0.000E+00

     total cpu time spent up to now is      563.9 secs

     total energy              =    -723.71064019 Ry
     Harris-Foulkes estimate   =    -724.24550520 Ry
     estimated scf accuracy    <      41.43978211 Ry

     iteration # 91     ecut=    80.00 Ry     beta= 0.40
     Davidson diagonalization with overlap
     ethr =  5.32E-04,  avg # of iterations =  1.0

     negative rho (up, down):  1.628E-03 0.000E+00

     total cpu time spent up to now is      569.2 secs

     total energy              =    -719.70299921 Ry
     Harris-Foulkes estimate   =    -723.71267084 Ry
     estimated scf accuracy    <      41.37202689 Ry

     iteration # 92     ecut=    80.00 Ry     beta= 0.40
     Davidson diagonalization with overlap
     ethr =  5.32E-04,  avg # of iterations =  2.4

     negative rho (up, down):  4.284E-03 0.000E+00

     total cpu time spent up to now is      576.2 secs

     total energy              =    -722.27712002 Ry
     Harris-Foulkes estimate   =    -722.52336014 Ry
     estimated scf accuracy    <       0.79160869 Ry

     iteration # 93     ecut=    80.00 Ry     beta= 0.40
     Davidson diagonalization with overlap
     ethr =  5.32E-04,  avg # of iterations =  2.0

     negative rho (up, down):  1.907E-04 0.000E+00

     total cpu time spent up to now is      582.5 secs

     total energy              =    -722.40252610 Ry
     Harris-Foulkes estimate   =    -722.50068699 Ry
     estimated scf accuracy    <       0.26038342 Ry

     iteration # 94     ecut=    80.00 Ry     beta= 0.40
     Davidson diagonalization with overlap
     ethr =  5.32E-04,  avg # of iterations =  2.0

     negative rho (up, down):  1.884E-02 0.000E+00

     total cpu time spent up to now is      588.7 secs

     total energy              =    -722.27328480 Ry
     Harris-Foulkes estimate   =    -722.44391998 Ry
     estimated scf accuracy    <       0.70653430 Ry

     iteration # 95     ecut=    80.00 Ry     beta= 0.40
     Davidson diagonalization with overlap
     ethr =  5.32E-04,  avg # of iterations =  2.0

     negative rho (up, down):  4.520E-02 0.000E+00

     total cpu time spent up to now is      594.9 secs

     total energy              =    -722.39374213 Ry
     Harris-Foulkes estimate   =    -722.49843541 Ry
     estimated scf accuracy    <       0.26651165 Ry

     iteration # 96     ecut=    80.00 Ry     beta= 0.40
     Davidson diagonalization with overlap
     ethr =  5.32E-04,  avg # of iterations =  2.0

     negative rho (up, down):  4.771E-02 0.000E+00

     total cpu time spent up to now is      601.0 secs

     total energy              =    -722.41626982 Ry
     Harris-Foulkes estimate   =    -722.45791624 Ry
     estimated scf accuracy    <       0.61057159 Ry

     iteration # 97     ecut=    80.00 Ry     beta= 0.40
     Davidson diagonalization with overlap
     ethr =  5.32E-04,  avg # of iterations =  1.0

     negative rho (up, down):  2.359E-02 0.000E+00

     total cpu time spent up to now is      606.4 secs

     total energy              =    -722.42463524 Ry
     Harris-Foulkes estimate   =    -722.41758051 Ry
     estimated scf accuracy    <       0.01109158 Ry

     iteration # 98     ecut=    80.00 Ry     beta= 0.40
     Davidson diagonalization with overlap
     ethr =  1.23E-04,  avg # of iterations =  2.0

     negative rho (up, down):  3.563E-02 0.000E+00

     total cpu time spent up to now is      613.0 secs

     total energy              =    -722.43466015 Ry
     Harris-Foulkes estimate   =    -722.51195629 Ry
     estimated scf accuracy    <       0.28905681 Ry

     iteration # 99     ecut=    80.00 Ry     beta= 0.40
     Davidson diagonalization with overlap
     ethr =  1.23E-04,  avg # of iterations =  2.0

     negative rho (up, down):  4.264E-02 0.000E+00

     total cpu time spent up to now is      619.2 secs

     total energy              =    -722.42230080 Ry
     Harris-Foulkes estimate   =    -722.43666004 Ry
     estimated scf accuracy    <       0.18549083 Ry

     iteration #100     ecut=    80.00 Ry     beta= 0.40
     Davidson diagonalization with overlap
     ethr =  1.23E-04,  avg # of iterations =  1.0

     negative rho (up, down):  4.693E-04 0.000E+00

     total cpu time spent up to now is      624.5 secs

     total energy              =    -722.68492384 Ry
     Harris-Foulkes estimate   =    -722.42153403 Ry
     estimated scf accuracy    <       0.23109337 Ry

     End of self-consistent calculation

     convergence NOT achieved after 100 iterations: stopping

     Writing output data file NNaCs.save/

     init_run     :      3.28s CPU      3.61s WALL (       1 calls)
     electrons    :    588.42s CPU    619.14s WALL (       1 calls)

     Called by init_run:
     wfcinit      :      2.62s CPU      2.76s WALL (       1 calls)
     potinit      :      0.12s CPU      0.20s WALL (       1 calls)
     hinit0       :      0.39s CPU      0.48s WALL (       1 calls)

     Called by electrons:
     c_bands      :    450.21s CPU    468.83s WALL (     100 calls)
     sum_band     :    119.02s CPU    124.22s WALL (     100 calls)
     v_of_rho     :      2.84s CPU      3.70s WALL (     101 calls)
     newd         :      9.60s CPU      9.65s WALL (     101 calls)
     PAW_pot      :      5.41s CPU     11.37s WALL (     101 calls)
     mix_rho      :      1.21s CPU      1.24s WALL (     100 calls)

     Called by c_bands:
     init_us_2    :     18.82s CPU     19.45s WALL (   22110 calls)
     cegterg      :    421.01s CPU    438.68s WALL (   11000 calls)

     Called by sum_band:
     sum_band:bec :      0.34s CPU      0.36s WALL (   11000 calls)
     addusdens    :      8.55s CPU      8.57s WALL (     100 calls)

     Called by *egterg:
     h_psi        :    351.91s CPU    367.57s WALL (   30694 calls)
     s_psi        :     19.86s CPU     20.54s WALL (   30694 calls)
     g_psi        :      0.82s CPU      0.83s WALL (   19584 calls)
     cdiaghg      :      5.22s CPU      5.37s WALL (   30584 calls)

     Called by h_psi:
     h_psi:pot    :    347.04s CPU    362.54s WALL (   30694 calls)
     h_psi:calbec :     29.66s CPU     31.31s WALL (   30694 calls)
     vloc_psi     :    294.43s CPU    307.35s WALL (   30694 calls)
     add_vuspsi   :     22.65s CPU     23.64s WALL (   30694 calls)

     General routines
     calbec       :     40.91s CPU     43.33s WALL (   41694 calls)
     fft          :      1.23s CPU      1.53s WALL (    1113 calls)
     ffts         :      0.12s CPU      0.12s WALL (     100 calls)
     fftw         :    257.23s CPU    268.94s WALL (  566662 calls)
     davcio       :      0.01s CPU      0.01s WALL (     128 calls)

     Parallel routines
     fft_scatt_xy :     39.58s CPU     41.31s WALL (  567875 calls)
     fft_scatt_yz :     54.81s CPU     57.74s WALL (  567875 calls)

     PWSCF        :  9m53.45s CPU    10m24.59s WALL


   This run was terminated on:  15:42:12  23Oct2018            

=------------------------------------------------------------------------------=
   JOB DONE.
=------------------------------------------------------------------------------=
-------------------------------------------------------
Primary job  terminated normally, but 1 process returned
a non-zero exit code.. Per user-direction, the job has been aborted.
-------------------------------------------------------
--------------------------------------------------------------------------
mpirun.openmpi detected that one or more processes exited with non-zero status, thus causing
the job to be terminated. The first process to do so was:

  Process name: [[6145,1],6]
  Exit code:    2
--------------------------------------------------------------------------
