
     Program PWSCF v.6.3MaX starts on 23Oct2018 at 12:36:35 

     This program is part of the open-source Quantum ESPRESSO suite
     for quantum simulation of materials; please cite
         "P. Giannozzi et al., J. Phys.:Condens. Matter 21 395502 (2009);
         "P. Giannozzi et al., J. Phys.:Condens. Matter 29 465901 (2017);
          URL http://www.quantum-espresso.org", 
     in publications or presentations arising from this work. More details at
     http://www.quantum-espresso.org/quote

     Parallel version (MPI), running on     8 processors

     MPI processes distributed on     1 nodes
     R & G space division:  proc/nbgrp/npool/nimage =       8
     Waiting for input...
     Reading input from standard input
Warning: card &CELL ignored
Warning: card                CELL_DYNAMICS = 'BFGS' , ignored
Warning: card / ignored

     Current dimensions of program PWSCF are:
     Max number of different atomic species (ntypx) = 10
     Max number of k-points (npk) =  40000
     Max angular momentum in pseudopotentials (lmaxx) =  3
               file N.pbe-n-kjpaw_psl.1.0.0.UPF: wavefunction(s)  2S renormalized
               file Na.pbe-spnl-kjpaw_psl.1.0.0.UPF: wavefunction(s)  2P renormalized

     Subspace diagonalization in iterative solution of the eigenvalue problem:
     a serial algorithm will be used


     Parallelization info
     --------------------
     sticks:   dense  smooth     PW     G-vecs:    dense   smooth      PW
     Min         158     158     47                 3724     3724     618
     Max         161     161     48                 3725     3725     621
     Sum        1273    1273    379                29795    29795    4957



     bravais-lattice index     =            2
     lattice parameter (alat)  =      14.6200  a.u.
     unit-cell volume          =     781.2358 (a.u.)^3
     number of atoms/cell      =            3
     number of atomic types    =            3
     number of electrons       =         9.00
     number of Kohn-Sham states=            9
     kinetic-energy cutoff     =      43.0000  Ry
     charge density cutoff     =     172.0000  Ry
     convergence threshold     =      1.0E-09
     mixing beta               =       0.4000
     number of iterations used =            8  plain     mixing
     Exchange-correlation      = SLA PW PBX PBC ( 1  4  3  4 0 0)

     celldm(1)=  14.620000  celldm(2)=   0.000000  celldm(3)=   0.000000
     celldm(4)=   0.000000  celldm(5)=   0.000000  celldm(6)=   0.000000

     crystal axes: (cart. coord. in units of alat)
               a(1) = (  -0.500000   0.000000   0.500000 )  
               a(2) = (   0.000000   0.500000   0.500000 )  
               a(3) = (  -0.500000   0.500000   0.000000 )  

     reciprocal axes: (cart. coord. in units 2 pi/alat)
               b(1) = ( -1.000000 -1.000000  1.000000 )  
               b(2) = (  1.000000  1.000000  1.000000 )  
               b(3) = ( -1.000000  1.000000 -1.000000 )  


     PseudoPot. # 1 for N  read from file:
     ./../ps/N.pbe-n-kjpaw_psl.1.0.0.UPF
     MD5 check sum: 200139db3989ad6e773ddd42f12fc3a8
     Pseudo is Projector augmented-wave + core cor, Zval =  5.0
     Generated using "atomic" code by A. Dal Corso v.6.3
     Shape of augmentation charge: PSQ
     Using radial grid of 1085 points,  4 beta functions with: 
                l(1) =   0
                l(2) =   0
                l(3) =   1
                l(4) =   1
     Q(r) pseudized with 0 coefficients 


     PseudoPot. # 2 for Na read from file:
     ./../ps/Na.pbe-spnl-kjpaw_psl.1.0.0.UPF
     MD5 check sum: 09e782c158f17eb2240230c4112357ee
     Pseudo is Projector augmented-wave + core cor, Zval =  9.0
     Generated using "atomic" code by A. Dal Corso v.6.3
     Shape of augmentation charge: PSQ
     Using radial grid of 1121 points,  4 beta functions with: 
                l(1) =   0
                l(2) =   0
                l(3) =   1
                l(4) =   1
     Q(r) pseudized with 0 coefficients 


     PseudoPot. # 3 for Cs read from file:
     ./../ps/Cs.pbe-spnl-kjpaw_psl.1.0.0.UPF
     MD5 check sum: f98336d4a4407e24c1ab1e3bc36275e8
     Pseudo is Projector augmented-wave + core cor, Zval = -5.0
     Generated using "atomic" code by A. Dal Corso v.6.2.2
     Shape of augmentation charge: PSQ
     Using radial grid of 1251 points,  6 beta functions with: 
                l(1) =   0
                l(2) =   0
                l(3) =   1
                l(4) =   1
                l(5) =   2
                l(6) =   2
     Q(r) pseudized with 0 coefficients 


     atomic species   valence    mass     pseudopotential
        N              5.00    14.00670     N ( 1.00)
        Na             9.00    22.98977     Na( 1.00)
        Cs            -5.00   132.90545     Cs( 1.00)

     24 Sym. Ops. (no inversion) found



   Cartesian axes

     site n.     atom                  positions (alat units)
         1           N   tau(   1) = (   0.0000000   0.0000000   0.0000000  )
         2           Na  tau(   2) = (  -0.2500000   0.2500000   0.2500000  )
         3           Cs  tau(   3) = (  -0.7500000   0.7500000   0.7500000  )

     number of k points=   110  Methfessel-Paxton smearing, width (Ry)=  0.0200

     Number of k-points >= 100: set verbosity='high' to print them.

     Dense  grid:    29795 G-vectors     FFT dimensions: (  45,  45,  45)

     Estimated max dynamical RAM per process >      28.71 MB

     Estimated total dynamical RAM >     229.65 MB

     Check: negative/imaginary core charge=   -0.000008    0.000000

     Initial potential from superposition of free atoms

     starting charge   22.95298, renormalised to    9.00000
     Starting wfcs are   14 randomized atomic wfcs
     Checking if some PAW data can be deallocated... 

     total cpu time spent up to now is        3.4 secs

     Self-consistent Calculation

     iteration #  1     ecut=    43.00 Ry     beta= 0.40
     Davidson diagonalization with overlap
     ethr =  1.00E-02,  avg # of iterations = 12.0

     total cpu time spent up to now is        8.6 secs

     total energy              =    -718.06680248 Ry
     Harris-Foulkes estimate   =    -744.91838650 Ry
     estimated scf accuracy    <      46.24718770 Ry

     iteration #  2     ecut=    43.00 Ry     beta= 0.40
     Davidson diagonalization with overlap
     ethr =  1.00E-02,  avg # of iterations =  3.0

     total cpu time spent up to now is       11.5 secs

     total energy              =    -709.51820786 Ry
     Harris-Foulkes estimate   =    -719.63272827 Ry
     estimated scf accuracy    <      11.43758993 Ry

     iteration #  3     ecut=    43.00 Ry     beta= 0.40
     Davidson diagonalization with overlap
     ethr =  1.00E-02,  avg # of iterations = 10.0

     negative rho (up, down):  8.439E-02 0.000E+00

     total cpu time spent up to now is       16.8 secs

     total energy              =    -712.45702635 Ry
     Harris-Foulkes estimate   =    -713.28588682 Ry
     estimated scf accuracy    <       1.34183582 Ry

     iteration #  4     ecut=    43.00 Ry     beta= 0.40
     Davidson diagonalization with overlap
     ethr =  1.00E-02,  avg # of iterations =  2.9

     negative rho (up, down):  1.648E-01 0.000E+00

     total cpu time spent up to now is       19.3 secs

     total energy              =    -712.72310752 Ry
     Harris-Foulkes estimate   =    -712.89537828 Ry
     estimated scf accuracy    <       0.28371419 Ry

     iteration #  5     ecut=    43.00 Ry     beta= 0.40
     Davidson diagonalization with overlap
     ethr =  3.15E-03,  avg # of iterations =  4.7

     negative rho (up, down):  2.305E-01 0.000E+00

     total cpu time spent up to now is       22.3 secs

     total energy              =    -712.70167756 Ry
     Harris-Foulkes estimate   =    -712.89295551 Ry
     estimated scf accuracy    <       0.29996533 Ry

     iteration #  6     ecut=    43.00 Ry     beta= 0.40
     Davidson diagonalization with overlap
     ethr =  3.15E-03,  avg # of iterations =  2.0

     negative rho (up, down):  2.295E-01 0.000E+00

     total cpu time spent up to now is       24.5 secs

     total energy              =    -712.76120296 Ry
     Harris-Foulkes estimate   =    -712.76120947 Ry
     estimated scf accuracy    <       0.00002924 Ry

     iteration #  7     ecut=    43.00 Ry     beta= 0.40
     Davidson diagonalization with overlap
     ethr =  3.25E-07,  avg # of iterations = 13.2

     negative rho (up, down):  2.272E-01 0.000E+00

     total cpu time spent up to now is       31.0 secs

     total energy              =    -712.76296364 Ry
     Harris-Foulkes estimate   =    -712.76300388 Ry
     estimated scf accuracy    <       0.00006793 Ry

     iteration #  8     ecut=    43.00 Ry     beta= 0.40
     Davidson diagonalization with overlap
     ethr =  3.25E-07,  avg # of iterations =  2.1

     negative rho (up, down):  2.287E-01 0.000E+00

     total cpu time spent up to now is       33.3 secs

     total energy              =    -712.76297080 Ry
     Harris-Foulkes estimate   =    -712.76297425 Ry
     estimated scf accuracy    <       0.00001088 Ry

     iteration #  9     ecut=    43.00 Ry     beta= 0.40
     Davidson diagonalization with overlap
     ethr =  1.21E-07,  avg # of iterations =  1.0

     negative rho (up, down):  2.285E-01 0.000E+00

     total cpu time spent up to now is       35.2 secs

     total energy              =    -712.76296927 Ry
     Harris-Foulkes estimate   =    -712.76297121 Ry
     estimated scf accuracy    <       0.00000270 Ry

     iteration # 10     ecut=    43.00 Ry     beta= 0.40
     Davidson diagonalization with overlap
     ethr =  2.99E-08,  avg # of iterations =  2.0

     negative rho (up, down):  2.284E-01 0.000E+00

     total cpu time spent up to now is       37.5 secs

     total energy              =    -712.76296917 Ry
     Harris-Foulkes estimate   =    -712.76296954 Ry
     estimated scf accuracy    <       0.00000052 Ry

     iteration # 11     ecut=    43.00 Ry     beta= 0.40
     Davidson diagonalization with overlap
     ethr =  5.79E-09,  avg # of iterations =  2.2

     negative rho (up, down):  2.284E-01 0.000E+00

     total cpu time spent up to now is       40.0 secs

     total energy              =    -712.76296924 Ry
     Harris-Foulkes estimate   =    -712.76296925 Ry
     estimated scf accuracy    <       0.00000008 Ry

     iteration # 12     ecut=    43.00 Ry     beta= 0.40
     Davidson diagonalization with overlap
     ethr =  8.63E-10,  avg # of iterations =  1.5

     negative rho (up, down):  2.284E-01 0.000E+00

     total cpu time spent up to now is       42.1 secs

     total energy              =    -712.76296921 Ry
     Harris-Foulkes estimate   =    -712.76296924 Ry
     estimated scf accuracy    <       0.00000005 Ry

     iteration # 13     ecut=    43.00 Ry     beta= 0.40
     Davidson diagonalization with overlap
     ethr =  6.05E-10,  avg # of iterations =  2.0

     negative rho (up, down):  2.284E-01 0.000E+00

     total cpu time spent up to now is       44.5 secs

     total energy              =    -712.76296924 Ry
     Harris-Foulkes estimate   =    -712.76296922 Ry
     estimated scf accuracy    <          1.2E-09 Ry

     iteration # 14     ecut=    43.00 Ry     beta= 0.40
     Davidson diagonalization with overlap
     ethr =  1.31E-11,  avg # of iterations =  3.9

     negative rho (up, down):  2.284E-01 0.000E+00

     total cpu time spent up to now is       47.7 secs

     End of self-consistent calculation

     Number of k-points >= 100: set verbosity='high' to print the bands.

     the Fermi energy is  -323.8116 ev

!    total energy              =    -712.76296923 Ry
     Harris-Foulkes estimate   =    -712.76296923 Ry
     estimated scf accuracy    <          4.0E-10 Ry

     total all-electron energy =    -16167.848745 Ry

     The total energy is the sum of the following terms:

     one-electron contribution =    -316.81488025 Ry
     hartree contribution      =      54.77492772 Ry
     xc contribution           =     -28.94855296 Ry
     ewald contribution        =     -36.56760684 Ry
     one-center paw contrib.   =    -385.19821653 Ry
     smearing contrib. (-TS)   =      -0.00864036 Ry

     convergence has been achieved in  14 iterations

     negative rho (up, down):  2.284E-01 0.000E+00

     Forces acting on atoms (cartesian axes, Ry/au):

     atom    1 type  1   force =     0.00000000    0.00000000    0.00000000
     atom    2 type  2   force =     0.00000000    0.00000000   -0.00000000
     atom    3 type  3   force =     0.00000000   -0.00000000    0.00000000

     Total force =     0.000000     Total SCF correction =     0.000000


     Computing stress (Cartesian axis) and pressure


     negative rho (up, down):  2.284E-01 0.000E+00
          total   stress  (Ry/bohr**3)                   (kbar)     P=********
  -0.14368411  -0.00000000  -0.00000000     -21136.66     -0.00     -0.00
  -0.00000000  -0.14368411   0.00000000         -0.00 -21136.66      0.00
  -0.00000000   0.00000000  -0.14368411         -0.00      0.00 -21136.66


     Writing output data file NNaCs.save/

     init_run     :      1.36s CPU      1.54s WALL (       1 calls)
     electrons    :     40.69s CPU     44.33s WALL (       1 calls)
     forces       :      0.33s CPU      0.36s WALL (       1 calls)
     stress       :      0.83s CPU      0.88s WALL (       1 calls)

     Called by init_run:
     wfcinit      :      0.98s CPU      1.03s WALL (       1 calls)
     potinit      :      0.09s CPU      0.16s WALL (       1 calls)
     hinit0       :      0.23s CPU      0.29s WALL (       1 calls)

     Called by electrons:
     c_bands      :     34.90s CPU     37.09s WALL (      14 calls)
     sum_band     :      4.41s CPU      4.83s WALL (      14 calls)
     v_of_rho     :      0.14s CPU      0.16s WALL (      15 calls)
     newd         :      0.51s CPU      0.54s WALL (      15 calls)
     PAW_pot      :      0.79s CPU      1.80s WALL (      15 calls)
     mix_rho      :      0.04s CPU      0.05s WALL (      14 calls)

     Called by c_bands:
     init_us_2    :      1.20s CPU      1.32s WALL (    3410 calls)
     cegterg      :     33.20s CPU     35.26s WALL (    1540 calls)

     Called by sum_band:
     sum_band:bec :      0.03s CPU      0.03s WALL (    1540 calls)
     addusdens    :      0.46s CPU      0.47s WALL (      14 calls)

     Called by *egterg:
     h_psi        :     24.65s CPU     26.19s WALL (    8528 calls)
     s_psi        :      1.72s CPU      1.82s WALL (    8528 calls)
     g_psi        :      0.10s CPU      0.11s WALL (    6878 calls)
     cdiaghg      :      1.75s CPU      1.85s WALL (    8418 calls)

     Called by h_psi:
     h_psi:pot    :     24.32s CPU     25.84s WALL (    8528 calls)
     h_psi:calbec :      2.74s CPU      2.93s WALL (    8528 calls)
     vloc_psi     :     19.60s CPU     20.80s WALL (    8528 calls)
     add_vuspsi   :      1.94s CPU      2.07s WALL (    8528 calls)

     General routines
     calbec       :      3.47s CPU      3.73s WALL (   10618 calls)
     fft          :      0.07s CPU      0.08s WALL (     191 calls)
     ffts         :      0.00s CPU      0.00s WALL (      14 calls)
     fftw         :     19.14s CPU     20.40s WALL (  109758 calls)

     Parallel routines
     fft_scatt_xy :      2.50s CPU      2.67s WALL (  109963 calls)
     fft_scatt_yz :      4.38s CPU      4.70s WALL (  109963 calls)

     PWSCF        :    45.02s CPU        49.07s WALL


   This run was terminated on:  12:37:24  23Oct2018            

=------------------------------------------------------------------------------=
   JOB DONE.
=------------------------------------------------------------------------------=
