
     Program PWSCF v.6.3MaX starts on 24Oct2018 at 12:35: 5 

     This program is part of the open-source Quantum ESPRESSO suite
     for quantum simulation of materials; please cite
         "P. Giannozzi et al., J. Phys.:Condens. Matter 21 395502 (2009);
         "P. Giannozzi et al., J. Phys.:Condens. Matter 29 465901 (2017);
          URL http://www.quantum-espresso.org", 
     in publications or presentations arising from this work. More details at
     http://www.quantum-espresso.org/quote

     Parallel version (MPI), running on     8 processors

     MPI processes distributed on     1 nodes
     R & G space division:  proc/nbgrp/npool/nimage =       8
     Waiting for input...
     Reading input from standard input
Warning: card &CELL ignored
Warning: card                CELL_DYNAMICS = 'BFGS' , ignored
Warning: card / ignored

     Current dimensions of program PWSCF are:
     Max number of different atomic species (ntypx) = 10
     Max number of k-points (npk) =  40000
     Max angular momentum in pseudopotentials (lmaxx) =  3
     Message from routine iosys:
     minimal I/O required, wf_collect reset to FALSE
               file N.pbe-n-kjpaw_psl.1.0.0.UPF: wavefunction(s)  2S renormalized
               file Na.pbe-spnl-kjpaw_psl.1.0.0.UPF: wavefunction(s)  2P renormalized

     Subspace diagonalization in iterative solution of the eigenvalue problem:
     a serial algorithm will be used


     Parallelization info
     --------------------
     sticks:   dense  smooth     PW     G-vecs:    dense   smooth      PW
     Min          63      63     20                  953      953     181
     Max          64      64     21                  955      955     185
     Sum         511     511    163                 7631     7631    1459



     bravais-lattice index     =            2
     lattice parameter (alat)  =       6.8000  a.u.
     unit-cell volume          =      78.6080 (a.u.)^3
     number of atoms/cell      =            3
     number of atomic types    =            3
     number of electrons       =         9.00
     number of Kohn-Sham states=            9
     kinetic-energy cutoff     =      80.0000  Ry
     charge density cutoff     =     320.0000  Ry
     convergence threshold     =      1.0E-09
     mixing beta               =       0.4000
     number of iterations used =            8  plain     mixing
     Exchange-correlation      = SLA PW PBX PBC ( 1  4  3  4 0 0)

     celldm(1)=   6.800000  celldm(2)=   0.000000  celldm(3)=   0.000000
     celldm(4)=   0.000000  celldm(5)=   0.000000  celldm(6)=   0.000000

     crystal axes: (cart. coord. in units of alat)
               a(1) = (  -0.500000   0.000000   0.500000 )  
               a(2) = (   0.000000   0.500000   0.500000 )  
               a(3) = (  -0.500000   0.500000   0.000000 )  

     reciprocal axes: (cart. coord. in units 2 pi/alat)
               b(1) = ( -1.000000 -1.000000  1.000000 )  
               b(2) = (  1.000000  1.000000  1.000000 )  
               b(3) = ( -1.000000  1.000000 -1.000000 )  


     PseudoPot. # 1 for N  read from file:
     ./ps/N.pbe-n-kjpaw_psl.1.0.0.UPF
     MD5 check sum: 200139db3989ad6e773ddd42f12fc3a8
     Pseudo is Projector augmented-wave + core cor, Zval =  5.0
     Generated using "atomic" code by A. Dal Corso v.6.3
     Shape of augmentation charge: PSQ
     Using radial grid of 1085 points,  4 beta functions with: 
                l(1) =   0
                l(2) =   0
                l(3) =   1
                l(4) =   1
     Q(r) pseudized with 0 coefficients 


     PseudoPot. # 2 for Na read from file:
     ./ps/Na.pbe-spnl-kjpaw_psl.1.0.0.UPF
     MD5 check sum: 09e782c158f17eb2240230c4112357ee
     Pseudo is Projector augmented-wave + core cor, Zval =  9.0
     Generated using "atomic" code by A. Dal Corso v.6.3
     Shape of augmentation charge: PSQ
     Using radial grid of 1121 points,  4 beta functions with: 
                l(1) =   0
                l(2) =   0
                l(3) =   1
                l(4) =   1
     Q(r) pseudized with 0 coefficients 


     PseudoPot. # 3 for Cs read from file:
     ./ps/Cs.pbe-spnl-kjpaw_psl.1.0.0.UPF
     MD5 check sum: f98336d4a4407e24c1ab1e3bc36275e8
     Pseudo is Projector augmented-wave + core cor, Zval = -5.0
     Generated using "atomic" code by A. Dal Corso v.6.2.2
     Shape of augmentation charge: PSQ
     Using radial grid of 1251 points,  6 beta functions with: 
                l(1) =   0
                l(2) =   0
                l(3) =   1
                l(4) =   1
                l(5) =   2
                l(6) =   2
     Q(r) pseudized with 0 coefficients 


     atomic species   valence    mass     pseudopotential
        N              5.00    14.00670     N ( 1.00)
        Na             9.00    22.98977     Na( 1.00)
        Cs            -5.00   132.90545     Cs( 1.00)

     24 Sym. Ops. (no inversion) found



   Cartesian axes

     site n.     atom                  positions (alat units)
         1           N   tau(   1) = (   0.0000000   0.0000000   0.0000000  )
         2           Na  tau(   2) = (  -0.2500000   0.2500000   0.2500000  )
         3           Cs  tau(   3) = (  -0.7500000   0.7500000   0.7500000  )

     number of k points=   110  Methfessel-Paxton smearing, width (Ry)=  0.0200

     Number of k-points >= 100: set verbosity='high' to print them.

     Dense  grid:     7631 G-vectors     FFT dimensions: (  27,  27,  27)

     Estimated max dynamical RAM per process >      10.10 MB

     Estimated total dynamical RAM >      80.78 MB

     Initial potential from superposition of free atoms

     starting charge   22.95298, renormalised to    9.00000
     Starting wfcs are   14 randomized atomic wfcs
     Checking if some PAW data can be deallocated... 

     total cpu time spent up to now is        4.3 secs

     Self-consistent Calculation

     iteration #  1     ecut=    80.00 Ry     beta= 0.40
     Davidson diagonalization with overlap
     ethr =  1.00E-02,  avg # of iterations = 11.3

     negative rho (up, down):  1.661E-03 0.000E+00

     total cpu time spent up to now is        8.2 secs

     total energy              =   -2462.21776082 Ry
     Harris-Foulkes estimate   =   -2468.03782276 Ry
     estimated scf accuracy    <      13.30712066 Ry

     iteration #  2     ecut=    80.00 Ry     beta= 0.40
     Davidson diagonalization with overlap
     ethr =  1.00E-02,  avg # of iterations =  1.0

     negative rho (up, down):  4.813E-02 0.000E+00

     total cpu time spent up to now is        9.4 secs

     total energy              =   -2459.91273363 Ry
     Harris-Foulkes estimate   =   -2462.50511200 Ry
     estimated scf accuracy    <       3.98859755 Ry

     iteration #  3     ecut=    80.00 Ry     beta= 0.40
     Davidson diagonalization with overlap
     ethr =  1.00E-02,  avg # of iterations =  1.5

     negative rho (up, down):  5.125E-02 0.000E+00

     total cpu time spent up to now is       10.5 secs

     total energy              =   -2459.93886300 Ry
     Harris-Foulkes estimate   =   -2460.07941940 Ry
     estimated scf accuracy    <       0.20015164 Ry

     iteration #  4     ecut=    80.00 Ry     beta= 0.40
     Davidson diagonalization with overlap
     ethr =  2.22E-03,  avg # of iterations =  3.3

     negative rho (up, down):  5.175E-02 0.000E+00

     total cpu time spent up to now is       11.8 secs

     total energy              =   -2459.94819270 Ry
     Harris-Foulkes estimate   =   -2459.95581292 Ry
     estimated scf accuracy    <       0.00641260 Ry

     iteration #  5     ecut=    80.00 Ry     beta= 0.40
     Davidson diagonalization with overlap
     c_bands:  1 eigenvalues not converged
     c_bands:  1 eigenvalues not converged
     c_bands:  1 eigenvalues not converged
     c_bands:  1 eigenvalues not converged
     c_bands:  1 eigenvalues not converged
     c_bands:  1 eigenvalues not converged
     c_bands:  1 eigenvalues not converged
     c_bands:  1 eigenvalues not converged
     c_bands:  1 eigenvalues not converged
     c_bands:  1 eigenvalues not converged
     c_bands:  1 eigenvalues not converged
     c_bands:  1 eigenvalues not converged
     c_bands:  1 eigenvalues not converged
     c_bands:  1 eigenvalues not converged
     c_bands:  1 eigenvalues not converged
     c_bands:  1 eigenvalues not converged
     c_bands:  1 eigenvalues not converged
     c_bands:  1 eigenvalues not converged
     c_bands:  1 eigenvalues not converged
     c_bands:  1 eigenvalues not converged
     c_bands:  1 eigenvalues not converged
     c_bands:  1 eigenvalues not converged
     c_bands:  1 eigenvalues not converged
     c_bands:  1 eigenvalues not converged
     c_bands:  1 eigenvalues not converged
     c_bands:  1 eigenvalues not converged
     c_bands:  1 eigenvalues not converged
     c_bands:  1 eigenvalues not converged
     c_bands:  1 eigenvalues not converged
     c_bands:  1 eigenvalues not converged
     c_bands:  1 eigenvalues not converged
     c_bands:  1 eigenvalues not converged
     c_bands:  1 eigenvalues not converged
     c_bands:  1 eigenvalues not converged
     c_bands:  1 eigenvalues not converged
     c_bands:  1 eigenvalues not converged
     c_bands:  1 eigenvalues not converged
     c_bands:  1 eigenvalues not converged
     ethr =  7.13E-05,  avg # of iterations = 15.1

     negative rho (up, down):  5.130E-02 0.000E+00

     total cpu time spent up to now is       15.1 secs

     total energy              =   -2459.95466357 Ry
     Harris-Foulkes estimate   =   -2459.95223511 Ry
     estimated scf accuracy    <       0.00175434 Ry

     iteration #  6     ecut=    80.00 Ry     beta= 0.40
     Davidson diagonalization with overlap
     c_bands:  1 eigenvalues not converged
     c_bands:  1 eigenvalues not converged
     c_bands:  1 eigenvalues not converged
     c_bands:  1 eigenvalues not converged
     ethr =  1.95E-05,  avg # of iterations =  7.6

     negative rho (up, down):  5.244E-02 0.000E+00

     total cpu time spent up to now is       17.1 secs

     total energy              =   -2459.95103083 Ry
     Harris-Foulkes estimate   =   -2459.95495093 Ry
     estimated scf accuracy    <       0.00776160 Ry

     iteration #  7     ecut=    80.00 Ry     beta= 0.40
     Davidson diagonalization with overlap
     ethr =  1.95E-05,  avg # of iterations =  2.1

     negative rho (up, down):  5.261E-02 0.000E+00

     total cpu time spent up to now is       18.5 secs

     total energy              =   -2459.95167689 Ry
     Harris-Foulkes estimate   =   -2459.95169087 Ry
     estimated scf accuracy    <       0.00005184 Ry

     iteration #  8     ecut=    80.00 Ry     beta= 0.40
     Davidson diagonalization with overlap
     ethr =  5.76E-07,  avg # of iterations =  7.9

     negative rho (up, down):  5.267E-02 0.000E+00

     total cpu time spent up to now is       20.7 secs

     total energy              =   -2459.95169580 Ry
     Harris-Foulkes estimate   =   -2459.95169720 Ry
     estimated scf accuracy    <       0.00000667 Ry

     iteration #  9     ecut=    80.00 Ry     beta= 0.40
     Davidson diagonalization with overlap
     ethr =  7.41E-08,  avg # of iterations =  1.5

     negative rho (up, down):  5.275E-02 0.000E+00

     total cpu time spent up to now is       21.9 secs

     total energy              =   -2459.95169516 Ry
     Harris-Foulkes estimate   =   -2459.95169624 Ry
     estimated scf accuracy    <       0.00000258 Ry

     iteration # 10     ecut=    80.00 Ry     beta= 0.40
     Davidson diagonalization with overlap
     ethr =  2.87E-08,  avg # of iterations =  1.8

     negative rho (up, down):  5.276E-02 0.000E+00

     total cpu time spent up to now is       23.0 secs

     total energy              =   -2459.95169541 Ry
     Harris-Foulkes estimate   =   -2459.95169541 Ry
     estimated scf accuracy    <       0.00000003 Ry

     iteration # 11     ecut=    80.00 Ry     beta= 0.40
     Davidson diagonalization with overlap
     ethr =  2.82E-10,  avg # of iterations =  4.3

     negative rho (up, down):  5.276E-02 0.000E+00

     total cpu time spent up to now is       24.8 secs

     total energy              =   -2459.95169552 Ry
     Harris-Foulkes estimate   =   -2459.95169550 Ry
     estimated scf accuracy    <       0.00000003 Ry

     iteration # 12     ecut=    80.00 Ry     beta= 0.40
     Davidson diagonalization with overlap
     ethr =  2.82E-10,  avg # of iterations =  1.0

     negative rho (up, down):  5.276E-02 0.000E+00

     total cpu time spent up to now is       25.9 secs

     total energy              =   -2459.95169549 Ry
     Harris-Foulkes estimate   =   -2459.95169552 Ry
     estimated scf accuracy    <       0.00000007 Ry

     iteration # 13     ecut=    80.00 Ry     beta= 0.40
     Davidson diagonalization with overlap
     ethr =  2.82E-10,  avg # of iterations =  2.0

     negative rho (up, down):  5.276E-02 0.000E+00

     total cpu time spent up to now is       27.1 secs

     End of self-consistent calculation

     Number of k-points >= 100: set verbosity='high' to print the bands.

     the Fermi energy is -2978.7480 ev

!    total energy              =   -2459.95169549 Ry
     Harris-Foulkes estimate   =   -2459.95169549 Ry
     estimated scf accuracy    <          9.2E-10 Ry

     total all-electron energy =    -17915.037471 Ry

     The total energy is the sum of the following terms:

     one-electron contribution =   -1976.49827557 Ry
     hartree contribution      =       4.55476569 Ry
     xc contribution           =     -25.41604258 Ry
     ewald contribution        =     -78.62035454 Ry
     one-center paw contrib.   =    -383.97181834 Ry
     smearing contrib. (-TS)   =       0.00002985 Ry

     convergence has been achieved in  13 iterations

     negative rho (up, down):  5.276E-02 0.000E+00

     Forces acting on atoms (cartesian axes, Ry/au):

     atom    1 type  1   force =     0.00000000    0.00000000    0.00000000
     atom    2 type  2   force =     0.00000000    0.00000000    0.00000000
     atom    3 type  3   force =     0.00000000    0.00000000   -0.00000000

     Total force =     0.000000     Total SCF correction =     0.000000


     Computing stress (Cartesian axis) and pressure


     negative rho (up, down):  5.276E-02 0.000E+00
          total   stress  (Ry/bohr**3)                   (kbar)     P=********
 -26.90596820   0.00000000  -0.00000000    **********      0.00     -0.00
   0.00000000 -26.90596820   0.00000000          0.00**********      0.00
  -0.00000000   0.00000000 -26.90596820         -0.00      0.00**********


     init_run     :      0.58s CPU      1.24s WALL (       1 calls)
     electrons    :     11.24s CPU     22.85s WALL (       1 calls)
     forces       :      0.11s CPU      0.21s WALL (       1 calls)
     stress       :      0.28s CPU      0.50s WALL (       1 calls)

     Called by init_run:
     wfcinit      :      0.29s CPU      0.61s WALL (       1 calls)
     potinit      :      0.04s CPU      0.16s WALL (       1 calls)
     hinit0       :      0.22s CPU      0.41s WALL (       1 calls)

     Called by electrons:
     c_bands      :      9.50s CPU     18.21s WALL (      13 calls)
     sum_band     :      1.11s CPU      2.22s WALL (      13 calls)
     v_of_rho     :      0.03s CPU      0.06s WALL (      14 calls)
     newd         :      0.08s CPU      0.15s WALL (      14 calls)
     PAW_pot      :      0.55s CPU      2.32s WALL (      14 calls)
     mix_rho      :      0.01s CPU      0.02s WALL (      13 calls)

     Called by c_bands:
     init_us_2    :      0.24s CPU      0.28s WALL (    3190 calls)
     cegterg      :      9.07s CPU     17.36s WALL (    1430 calls)

     Called by sum_band:
     sum_band:bec :      0.01s CPU      0.02s WALL (    1430 calls)
     addusdens    :      0.07s CPU      0.07s WALL (      13 calls)

     Called by *egterg:
     h_psi        :      5.84s CPU     11.38s WALL (    8177 calls)
     s_psi        :      0.37s CPU      0.45s WALL (    8177 calls)
     g_psi        :      0.02s CPU      0.02s WALL (    6637 calls)
     cdiaghg      :      1.42s CPU      2.60s WALL (    8067 calls)

     Called by h_psi:
     h_psi:pot    :      5.81s CPU     11.36s WALL (    8177 calls)
     h_psi:calbec :      0.70s CPU      1.71s WALL (    8177 calls)
     vloc_psi     :      4.70s CPU      9.14s WALL (    8177 calls)
     add_vuspsi   :      0.39s CPU      0.48s WALL (    8177 calls)

     General routines
     calbec       :      1.00s CPU      2.45s WALL (   10157 calls)
     fft          :      0.03s CPU      0.13s WALL (     180 calls)
     ffts         :      0.00s CPU      0.00s WALL (      13 calls)
     fftw         :      5.04s CPU     10.17s WALL (   94972 calls)

     Parallel routines
     fft_scatt_xy :      0.40s CPU      0.49s WALL (   95165 calls)
     fft_scatt_yz :      1.99s CPU      6.59s WALL (   95165 calls)

     PWSCF        :    14.04s CPU        27.86s WALL


   This run was terminated on:  12:35:32  24Oct2018            

=------------------------------------------------------------------------------=
   JOB DONE.
=------------------------------------------------------------------------------=
