
     Program PWSCF v.6.3MaX starts on 24Oct2018 at 12:37:23 

     This program is part of the open-source Quantum ESPRESSO suite
     for quantum simulation of materials; please cite
         "P. Giannozzi et al., J. Phys.:Condens. Matter 21 395502 (2009);
         "P. Giannozzi et al., J. Phys.:Condens. Matter 29 465901 (2017);
          URL http://www.quantum-espresso.org", 
     in publications or presentations arising from this work. More details at
     http://www.quantum-espresso.org/quote

     Parallel version (MPI), running on     8 processors

     MPI processes distributed on     1 nodes
     R & G space division:  proc/nbgrp/npool/nimage =       8
     Waiting for input...
     Reading input from standard input
Warning: card &CELL ignored
Warning: card                CELL_DYNAMICS = 'BFGS' , ignored
Warning: card / ignored

     Current dimensions of program PWSCF are:
     Max number of different atomic species (ntypx) = 10
     Max number of k-points (npk) =  40000
     Max angular momentum in pseudopotentials (lmaxx) =  3
     Message from routine iosys:
     minimal I/O required, wf_collect reset to FALSE
               file N.pbe-n-kjpaw_psl.1.0.0.UPF: wavefunction(s)  2S renormalized
               file Na.pbe-spnl-kjpaw_psl.1.0.0.UPF: wavefunction(s)  2P renormalized

     Subspace diagonalization in iterative solution of the eigenvalue problem:
     a serial algorithm will be used


     Parallelization info
     --------------------
     sticks:   dense  smooth     PW     G-vecs:    dense   smooth      PW
     Min          72      72     24                 1169     1169     225
     Max          73      73     25                 1173     1173     227
     Sum         583     583    199                 9377     9377    1807



     bravais-lattice index     =            2
     lattice parameter (alat)  =       7.3000  a.u.
     unit-cell volume          =      97.2542 (a.u.)^3
     number of atoms/cell      =            3
     number of atomic types    =            3
     number of electrons       =         9.00
     number of Kohn-Sham states=            9
     kinetic-energy cutoff     =      80.0000  Ry
     charge density cutoff     =     320.0000  Ry
     convergence threshold     =      1.0E-09
     mixing beta               =       0.4000
     number of iterations used =            8  plain     mixing
     Exchange-correlation      = SLA PW PBX PBC ( 1  4  3  4 0 0)

     celldm(1)=   7.300000  celldm(2)=   0.000000  celldm(3)=   0.000000
     celldm(4)=   0.000000  celldm(5)=   0.000000  celldm(6)=   0.000000

     crystal axes: (cart. coord. in units of alat)
               a(1) = (  -0.500000   0.000000   0.500000 )  
               a(2) = (   0.000000   0.500000   0.500000 )  
               a(3) = (  -0.500000   0.500000   0.000000 )  

     reciprocal axes: (cart. coord. in units 2 pi/alat)
               b(1) = ( -1.000000 -1.000000  1.000000 )  
               b(2) = (  1.000000  1.000000  1.000000 )  
               b(3) = ( -1.000000  1.000000 -1.000000 )  


     PseudoPot. # 1 for N  read from file:
     ./ps/N.pbe-n-kjpaw_psl.1.0.0.UPF
     MD5 check sum: 200139db3989ad6e773ddd42f12fc3a8
     Pseudo is Projector augmented-wave + core cor, Zval =  5.0
     Generated using "atomic" code by A. Dal Corso v.6.3
     Shape of augmentation charge: PSQ
     Using radial grid of 1085 points,  4 beta functions with: 
                l(1) =   0
                l(2) =   0
                l(3) =   1
                l(4) =   1
     Q(r) pseudized with 0 coefficients 


     PseudoPot. # 2 for Na read from file:
     ./ps/Na.pbe-spnl-kjpaw_psl.1.0.0.UPF
     MD5 check sum: 09e782c158f17eb2240230c4112357ee
     Pseudo is Projector augmented-wave + core cor, Zval =  9.0
     Generated using "atomic" code by A. Dal Corso v.6.3
     Shape of augmentation charge: PSQ
     Using radial grid of 1121 points,  4 beta functions with: 
                l(1) =   0
                l(2) =   0
                l(3) =   1
                l(4) =   1
     Q(r) pseudized with 0 coefficients 


     PseudoPot. # 3 for Cs read from file:
     ./ps/Cs.pbe-spnl-kjpaw_psl.1.0.0.UPF
     MD5 check sum: f98336d4a4407e24c1ab1e3bc36275e8
     Pseudo is Projector augmented-wave + core cor, Zval = -5.0
     Generated using "atomic" code by A. Dal Corso v.6.2.2
     Shape of augmentation charge: PSQ
     Using radial grid of 1251 points,  6 beta functions with: 
                l(1) =   0
                l(2) =   0
                l(3) =   1
                l(4) =   1
                l(5) =   2
                l(6) =   2
     Q(r) pseudized with 0 coefficients 


     atomic species   valence    mass     pseudopotential
        N              5.00    14.00670     N ( 1.00)
        Na             9.00    22.98977     Na( 1.00)
        Cs            -5.00   132.90545     Cs( 1.00)

     24 Sym. Ops. (no inversion) found



   Cartesian axes

     site n.     atom                  positions (alat units)
         1           N   tau(   1) = (   0.0000000   0.0000000   0.0000000  )
         2           Na  tau(   2) = (  -0.2500000   0.2500000   0.2500000  )
         3           Cs  tau(   3) = (  -0.7500000   0.7500000   0.7500000  )

     number of k points=   110  Methfessel-Paxton smearing, width (Ry)=  0.0200

     Number of k-points >= 100: set verbosity='high' to print them.

     Dense  grid:     9377 G-vectors     FFT dimensions: (  30,  30,  30)

     Estimated max dynamical RAM per process >      11.71 MB

     Estimated total dynamical RAM >      93.67 MB

     Initial potential from superposition of free atoms

     starting charge   22.95298, renormalised to    9.00000
     Starting wfcs are   14 randomized atomic wfcs
     Checking if some PAW data can be deallocated... 

     total cpu time spent up to now is        4.9 secs

     Self-consistent Calculation

     iteration #  1     ecut=    80.00 Ry     beta= 0.40
     Davidson diagonalization with overlap
     ethr =  1.00E-02,  avg # of iterations =  8.9

     negative rho (up, down):  6.331E-01 0.000E+00

     total cpu time spent up to now is        9.0 secs

     total energy              =   -2067.85842607 Ry
     Harris-Foulkes estimate   =   -2080.05234804 Ry
     estimated scf accuracy    <      26.81473712 Ry

     iteration #  2     ecut=    80.00 Ry     beta= 0.40
     Davidson diagonalization with overlap
     ethr =  1.00E-02,  avg # of iterations =  5.1

     negative rho (up, down):  1.430E+00 0.000E+00

     total cpu time spent up to now is       11.0 secs

     total energy              =   -2067.39649511 Ry
     Harris-Foulkes estimate   =   -2069.55233615 Ry
     estimated scf accuracy    <       4.65011275 Ry

     iteration #  3     ecut=    80.00 Ry     beta= 0.40
     Davidson diagonalization with overlap
     ethr =  1.00E-02,  avg # of iterations =  3.4

     negative rho (up, down):  1.347E+00 0.000E+00

     total cpu time spent up to now is       12.7 secs

     total energy              =   -2068.09276860 Ry
     Harris-Foulkes estimate   =   -2068.29834407 Ry
     estimated scf accuracy    <       0.31230701 Ry

     iteration #  4     ecut=    80.00 Ry     beta= 0.40
     Davidson diagonalization with overlap
     ethr =  3.47E-03,  avg # of iterations =  2.2

     negative rho (up, down):  1.509E+00 0.000E+00

     total cpu time spent up to now is       14.1 secs

     total energy              =   -2068.17080732 Ry
     Harris-Foulkes estimate   =   -2068.22584505 Ry
     estimated scf accuracy    <       0.16321756 Ry

     iteration #  5     ecut=    80.00 Ry     beta= 0.40
     Davidson diagonalization with overlap
     ethr =  1.81E-03,  avg # of iterations =  1.0

     negative rho (up, down):  1.549E+00 0.000E+00

     total cpu time spent up to now is       15.3 secs

     total energy              =   -2068.17511686 Ry
     Harris-Foulkes estimate   =   -2068.18322585 Ry
     estimated scf accuracy    <       0.00754127 Ry

     iteration #  6     ecut=    80.00 Ry     beta= 0.40
     Davidson diagonalization with overlap
     ethr =  8.38E-05,  avg # of iterations =  3.3

     negative rho (up, down):  1.530E+00 0.000E+00

     total cpu time spent up to now is       17.4 secs

     total energy              =   -2068.17827953 Ry
     Harris-Foulkes estimate   =   -2068.18107085 Ry
     estimated scf accuracy    <       0.00323551 Ry

     iteration #  7     ecut=    80.00 Ry     beta= 0.40
     Davidson diagonalization with overlap
     ethr =  3.60E-05,  avg # of iterations =  2.1

     negative rho (up, down):  1.544E+00 0.000E+00

     total cpu time spent up to now is       18.8 secs

     total energy              =   -2068.17837094 Ry
     Harris-Foulkes estimate   =   -2068.18047641 Ry
     estimated scf accuracy    <       0.00189466 Ry

     iteration #  8     ecut=    80.00 Ry     beta= 0.40
     Davidson diagonalization with overlap
     ethr =  2.11E-05,  avg # of iterations =  2.4

     negative rho (up, down):  1.534E+00 0.000E+00

     total cpu time spent up to now is       20.3 secs

     total energy              =   -2068.17892988 Ry
     Harris-Foulkes estimate   =   -2068.18027528 Ry
     estimated scf accuracy    <       0.00252251 Ry

     iteration #  9     ecut=    80.00 Ry     beta= 0.40
     Davidson diagonalization with overlap
     ethr =  2.11E-05,  avg # of iterations =  1.6

     negative rho (up, down):  1.534E+00 0.000E+00

     total cpu time spent up to now is       21.5 secs

     total energy              =   -2068.17952459 Ry
     Harris-Foulkes estimate   =   -2068.17957223 Ry
     estimated scf accuracy    <       0.00001748 Ry

     iteration # 10     ecut=    80.00 Ry     beta= 0.40
     Davidson diagonalization with overlap
     ethr =  1.94E-07,  avg # of iterations =  3.7

     negative rho (up, down):  1.534E+00 0.000E+00

     total cpu time spent up to now is       23.2 secs

     total energy              =   -2068.17954639 Ry
     Harris-Foulkes estimate   =   -2068.17953957 Ry
     estimated scf accuracy    <       0.00000551 Ry

     iteration # 11     ecut=    80.00 Ry     beta= 0.40
     Davidson diagonalization with overlap
     ethr =  6.12E-08,  avg # of iterations =  1.0

     negative rho (up, down):  1.534E+00 0.000E+00

     total cpu time spent up to now is       24.5 secs

     total energy              =   -2068.17953652 Ry
     Harris-Foulkes estimate   =   -2068.17954652 Ry
     estimated scf accuracy    <       0.00000706 Ry

     iteration # 12     ecut=    80.00 Ry     beta= 0.40
     Davidson diagonalization with overlap
     ethr =  6.12E-08,  avg # of iterations =  1.6

     negative rho (up, down):  1.534E+00 0.000E+00

     total cpu time spent up to now is       25.7 secs

     total energy              =   -2068.17954369 Ry
     Harris-Foulkes estimate   =   -2068.17953855 Ry
     estimated scf accuracy    <       0.00000012 Ry

     iteration # 13     ecut=    80.00 Ry     beta= 0.40
     Davidson diagonalization with overlap
     ethr =  1.31E-09,  avg # of iterations =  3.2

     negative rho (up, down):  1.534E+00 0.000E+00

     total cpu time spent up to now is       27.3 secs

     total energy              =   -2068.17954679 Ry
     Harris-Foulkes estimate   =   -2068.17954375 Ry
     estimated scf accuracy    <       0.00000001 Ry

     iteration # 14     ecut=    80.00 Ry     beta= 0.40
     Davidson diagonalization with overlap
     ethr =  1.60E-10,  avg # of iterations =  1.3

     negative rho (up, down):  1.534E+00 0.000E+00

     total cpu time spent up to now is       28.7 secs

     End of self-consistent calculation

     Number of k-points >= 100: set verbosity='high' to print the bands.

     the Fermi energy is -2403.1737 ev

!    total energy              =   -2068.17954720 Ry
     Harris-Foulkes estimate   =   -2068.17954679 Ry
     estimated scf accuracy    <          3.8E-10 Ry

     total all-electron energy =    -17523.265323 Ry

     The total energy is the sum of the following terms:

     one-electron contribution =   -1587.25260076 Ry
     hartree contribution      =       7.01417397 Ry
     xc contribution           =     -26.29526991 Ry
     ewald contribution        =     -73.23539875 Ry
     one-center paw contrib.   =    -388.41019328 Ry
     smearing contrib. (-TS)   =      -0.00025848 Ry

     convergence has been achieved in  14 iterations

     negative rho (up, down):  1.534E+00 0.000E+00

     Forces acting on atoms (cartesian axes, Ry/au):

     atom    1 type  1   force =     0.00000000    0.00000000    0.00000000
     atom    2 type  2   force =     0.00000000    0.00000000    0.00000000
     atom    3 type  3   force =    -0.00000000    0.00000000    0.00000000

     Total force =     0.000000     Total SCF correction =     0.000000


     Computing stress (Cartesian axis) and pressure


     negative rho (up, down):  1.534E+00 0.000E+00
          total   stress  (Ry/bohr**3)                   (kbar)     P=********
 -17.09814339  -0.00000000  -0.00000000    **********     -0.00     -0.00
  -0.00000000 -17.09814339   0.00000000         -0.00**********      0.00
  -0.00000000   0.00000000 -17.09814339         -0.00      0.00**********


     init_run     :      0.67s CPU      1.84s WALL (       1 calls)
     electrons    :     11.62s CPU     23.82s WALL (       1 calls)
     forces       :      0.11s CPU      0.27s WALL (       1 calls)
     stress       :      0.32s CPU      0.64s WALL (       1 calls)

     Called by init_run:
     wfcinit      :      0.34s CPU      1.05s WALL (       1 calls)
     potinit      :      0.10s CPU      0.28s WALL (       1 calls)
     hinit0       :      0.21s CPU      0.44s WALL (       1 calls)

     Called by electrons:
     c_bands      :      9.46s CPU     18.12s WALL (      14 calls)
     sum_band     :      1.35s CPU      2.56s WALL (      14 calls)
     v_of_rho     :      0.04s CPU      0.08s WALL (      15 calls)
     newd         :      0.10s CPU      0.23s WALL (      15 calls)
     PAW_pot      :      0.75s CPU      3.09s WALL (      15 calls)
     mix_rho      :      0.01s CPU      0.02s WALL (      14 calls)

     Called by c_bands:
     init_us_2    :      0.29s CPU      0.35s WALL (    3410 calls)
     cegterg      :      8.91s CPU     17.09s WALL (    1540 calls)

     Called by sum_band:
     sum_band:bec :      0.01s CPU      0.02s WALL (    1540 calls)
     addusdens    :      0.08s CPU      0.09s WALL (      14 calls)

     Called by *egterg:
     h_psi        :      6.21s CPU     12.47s WALL (    6142 calls)
     s_psi        :      0.44s CPU      0.52s WALL (    6142 calls)
     g_psi        :      0.02s CPU      0.03s WALL (    4492 calls)
     cdiaghg      :      0.95s CPU      1.72s WALL (    6032 calls)

     Called by h_psi:
     h_psi:pot    :      6.19s CPU     12.45s WALL (    6142 calls)
     h_psi:calbec :      0.78s CPU      1.84s WALL (    6142 calls)
     vloc_psi     :      4.94s CPU     10.05s WALL (    6142 calls)
     add_vuspsi   :      0.45s CPU      0.53s WALL (    6142 calls)

     General routines
     calbec       :      1.14s CPU      2.78s WALL (    8232 calls)
     fft          :      0.05s CPU      0.19s WALL (     191 calls)
     ffts         :      0.00s CPU      0.00s WALL (      14 calls)
     fftw         :      5.32s CPU     11.14s WALL (   97742 calls)

     Parallel routines
     fft_scatt_xy :      0.52s CPU      0.61s WALL (   97947 calls)
     fft_scatt_yz :      2.33s CPU      7.73s WALL (   97947 calls)

     PWSCF        :    14.57s CPU        29.61s WALL


   This run was terminated on:  12:37:53  24Oct2018            

=------------------------------------------------------------------------------=
   JOB DONE.
=------------------------------------------------------------------------------=
