
     Program PWSCF v.6.3MaX starts on 23Oct2018 at 13:40: 4 

     This program is part of the open-source Quantum ESPRESSO suite
     for quantum simulation of materials; please cite
         "P. Giannozzi et al., J. Phys.:Condens. Matter 21 395502 (2009);
         "P. Giannozzi et al., J. Phys.:Condens. Matter 29 465901 (2017);
          URL http://www.quantum-espresso.org", 
     in publications or presentations arising from this work. More details at
     http://www.quantum-espresso.org/quote

     Parallel version (MPI), running on     8 processors

     MPI processes distributed on     1 nodes
     R & G space division:  proc/nbgrp/npool/nimage =       8
     Waiting for input...
     Reading input from standard input
Warning: card &CELL ignored
Warning: card                CELL_DYNAMICS = 'BFGS' , ignored
Warning: card / ignored

     Current dimensions of program PWSCF are:
     Max number of different atomic species (ntypx) = 10
     Max number of k-points (npk) =  40000
     Max angular momentum in pseudopotentials (lmaxx) =  3
               file N.pbe-n-kjpaw_psl.1.0.0.UPF: wavefunction(s)  2S renormalized
               file Na.pbe-spnl-kjpaw_psl.1.0.0.UPF: wavefunction(s)  2P renormalized

     Subspace diagonalization in iterative solution of the eigenvalue problem:
     a serial algorithm will be used


     Parallelization info
     --------------------
     sticks:   dense  smooth     PW     G-vecs:    dense   smooth      PW
     Min         303     303     86                 9957     9957    1506
     Max         304     304     87                 9959     9959    1507
     Sum        2431    2431    691                79663    79663   12051



     bravais-lattice index     =            2
     lattice parameter (alat)  =      14.6200  a.u.
     unit-cell volume          =     781.2358 (a.u.)^3
     number of atoms/cell      =            3
     number of atomic types    =            3
     number of electrons       =         9.00
     number of Kohn-Sham states=            9
     kinetic-energy cutoff     =      83.0000  Ry
     charge density cutoff     =     332.0000  Ry
     convergence threshold     =      1.0E-09
     mixing beta               =       0.4000
     number of iterations used =            8  plain     mixing
     Exchange-correlation      = SLA PW PBX PBC ( 1  4  3  4 0 0)

     celldm(1)=  14.620000  celldm(2)=   0.000000  celldm(3)=   0.000000
     celldm(4)=   0.000000  celldm(5)=   0.000000  celldm(6)=   0.000000

     crystal axes: (cart. coord. in units of alat)
               a(1) = (  -0.500000   0.000000   0.500000 )  
               a(2) = (   0.000000   0.500000   0.500000 )  
               a(3) = (  -0.500000   0.500000   0.000000 )  

     reciprocal axes: (cart. coord. in units 2 pi/alat)
               b(1) = ( -1.000000 -1.000000  1.000000 )  
               b(2) = (  1.000000  1.000000  1.000000 )  
               b(3) = ( -1.000000  1.000000 -1.000000 )  


     PseudoPot. # 1 for N  read from file:
     ./../ps/N.pbe-n-kjpaw_psl.1.0.0.UPF
     MD5 check sum: 200139db3989ad6e773ddd42f12fc3a8
     Pseudo is Projector augmented-wave + core cor, Zval =  5.0
     Generated using "atomic" code by A. Dal Corso v.6.3
     Shape of augmentation charge: PSQ
     Using radial grid of 1085 points,  4 beta functions with: 
                l(1) =   0
                l(2) =   0
                l(3) =   1
                l(4) =   1
     Q(r) pseudized with 0 coefficients 


     PseudoPot. # 2 for Na read from file:
     ./../ps/Na.pbe-spnl-kjpaw_psl.1.0.0.UPF
     MD5 check sum: 09e782c158f17eb2240230c4112357ee
     Pseudo is Projector augmented-wave + core cor, Zval =  9.0
     Generated using "atomic" code by A. Dal Corso v.6.3
     Shape of augmentation charge: PSQ
     Using radial grid of 1121 points,  4 beta functions with: 
                l(1) =   0
                l(2) =   0
                l(3) =   1
                l(4) =   1
     Q(r) pseudized with 0 coefficients 


     PseudoPot. # 3 for Cs read from file:
     ./../ps/Cs.pbe-spnl-kjpaw_psl.1.0.0.UPF
     MD5 check sum: f98336d4a4407e24c1ab1e3bc36275e8
     Pseudo is Projector augmented-wave + core cor, Zval = -5.0
     Generated using "atomic" code by A. Dal Corso v.6.2.2
     Shape of augmentation charge: PSQ
     Using radial grid of 1251 points,  6 beta functions with: 
                l(1) =   0
                l(2) =   0
                l(3) =   1
                l(4) =   1
                l(5) =   2
                l(6) =   2
     Q(r) pseudized with 0 coefficients 


     atomic species   valence    mass     pseudopotential
        N              5.00    14.00670     N ( 1.00)
        Na             9.00    22.98977     Na( 1.00)
        Cs            -5.00   132.90545     Cs( 1.00)

     24 Sym. Ops. (no inversion) found



   Cartesian axes

     site n.     atom                  positions (alat units)
         1           N   tau(   1) = (   0.0000000   0.0000000   0.0000000  )
         2           Na  tau(   2) = (  -0.2500000   0.2500000   0.2500000  )
         3           Cs  tau(   3) = (  -0.7500000   0.7500000   0.7500000  )

     number of k points=   110  Methfessel-Paxton smearing, width (Ry)=  0.0200

     Number of k-points >= 100: set verbosity='high' to print them.

     Dense  grid:    79663 G-vectors     FFT dimensions: (  60,  60,  60)

     Estimated max dynamical RAM per process >      67.12 MB

     Estimated total dynamical RAM >     536.96 MB

     Check: negative/imaginary core charge=   -0.000002    0.000000

     Initial potential from superposition of free atoms

     starting charge   22.95298, renormalised to    9.00000
     Starting wfcs are   14 randomized atomic wfcs
     Checking if some PAW data can be deallocated... 

     total cpu time spent up to now is        5.5 secs

     Self-consistent Calculation

     iteration #  1     ecut=    83.00 Ry     beta= 0.40
     Davidson diagonalization with overlap
     ethr =  1.00E-02,  avg # of iterations = 12.3

     total cpu time spent up to now is       20.7 secs

     total energy              =    -717.43517671 Ry
     Harris-Foulkes estimate   =    -745.46991952 Ry
     estimated scf accuracy    <      48.70126818 Ry

     iteration #  2     ecut=    83.00 Ry     beta= 0.40
     Davidson diagonalization with overlap
     ethr =  1.00E-02,  avg # of iterations =  3.0

     total cpu time spent up to now is       28.8 secs

     total energy              =    -709.75270182 Ry
     Harris-Foulkes estimate   =    -719.38884791 Ry
     estimated scf accuracy    <      11.17440184 Ry

     iteration #  3     ecut=    83.00 Ry     beta= 0.40
     Davidson diagonalization with overlap
     ethr =  1.00E-02,  avg # of iterations =  9.7

     negative rho (up, down):  9.377E-02 0.000E+00

     total cpu time spent up to now is       44.0 secs

     total energy              =    -712.59565258 Ry
     Harris-Foulkes estimate   =    -713.18334537 Ry
     estimated scf accuracy    <       1.08392298 Ry

     iteration #  4     ecut=    83.00 Ry     beta= 0.40
     Davidson diagonalization with overlap
     ethr =  1.00E-02,  avg # of iterations =  3.3

     negative rho (up, down):  1.860E-01 0.000E+00

     total cpu time spent up to now is       52.1 secs

     total energy              =    -712.73153963 Ry
     Harris-Foulkes estimate   =    -712.92110602 Ry
     estimated scf accuracy    <       0.27906090 Ry

     iteration #  5     ecut=    83.00 Ry     beta= 0.40
     Davidson diagonalization with overlap
     ethr =  3.10E-03,  avg # of iterations =  6.1

     negative rho (up, down):  2.248E-01 0.000E+00

     total cpu time spent up to now is       62.0 secs

     total energy              =    -712.77602373 Ry
     Harris-Foulkes estimate   =    -712.82148851 Ry
     estimated scf accuracy    <       0.08131983 Ry

     iteration #  6     ecut=    83.00 Ry     beta= 0.40
     Davidson diagonalization with overlap
     ethr =  9.04E-04,  avg # of iterations =  2.9

     negative rho (up, down):  2.234E-01 0.000E+00

     total cpu time spent up to now is       68.7 secs

     total energy              =    -712.79189474 Ry
     Harris-Foulkes estimate   =    -712.79190708 Ry
     estimated scf accuracy    <       0.00004293 Ry

     iteration #  7     ecut=    83.00 Ry     beta= 0.40
     Davidson diagonalization with overlap
     ethr =  4.77E-07,  avg # of iterations = 12.3

     negative rho (up, down):  2.229E-01 0.000E+00

     total cpu time spent up to now is       85.7 secs

     total energy              =    -712.79311569 Ry
     Harris-Foulkes estimate   =    -712.79313396 Ry
     estimated scf accuracy    <       0.00001470 Ry

     iteration #  8     ecut=    83.00 Ry     beta= 0.40
     Davidson diagonalization with overlap
     ethr =  1.63E-07,  avg # of iterations =  3.0

     negative rho (up, down):  2.236E-01 0.000E+00

     total cpu time spent up to now is       93.7 secs

     total energy              =    -712.79312500 Ry
     Harris-Foulkes estimate   =    -712.79312773 Ry
     estimated scf accuracy    <       0.00000702 Ry

     iteration #  9     ecut=    83.00 Ry     beta= 0.40
     Davidson diagonalization with overlap
     ethr =  7.80E-08,  avg # of iterations =  2.0

     negative rho (up, down):  2.235E-01 0.000E+00

     total cpu time spent up to now is      100.9 secs

     total energy              =    -712.79312431 Ry
     Harris-Foulkes estimate   =    -712.79312688 Ry
     estimated scf accuracy    <       0.00000154 Ry

     iteration # 10     ecut=    83.00 Ry     beta= 0.40
     Davidson diagonalization with overlap
     ethr =  1.71E-08,  avg # of iterations =  2.0

     negative rho (up, down):  2.235E-01 0.000E+00

     total cpu time spent up to now is      107.4 secs

     total energy              =    -712.79312392 Ry
     Harris-Foulkes estimate   =    -712.79312453 Ry
     estimated scf accuracy    <       0.00000031 Ry

     iteration # 11     ecut=    83.00 Ry     beta= 0.40
     Davidson diagonalization with overlap
     ethr =  3.43E-09,  avg # of iterations =  2.8

     negative rho (up, down):  2.235E-01 0.000E+00

     total cpu time spent up to now is      114.4 secs

     total energy              =    -712.79312400 Ry
     Harris-Foulkes estimate   =    -712.79312403 Ry
     estimated scf accuracy    <       0.00000002 Ry

     iteration # 12     ecut=    83.00 Ry     beta= 0.40
     Davidson diagonalization with overlap
     ethr =  2.05E-10,  avg # of iterations =  3.1

     negative rho (up, down):  2.235E-01 0.000E+00

     total cpu time spent up to now is      122.3 secs

     End of self-consistent calculation

     Number of k-points >= 100: set verbosity='high' to print the bands.

     the Fermi energy is  -323.9892 ev

!    total energy              =    -712.79312402 Ry
     Harris-Foulkes estimate   =    -712.79312401 Ry
     estimated scf accuracy    <          9.6E-10 Ry

     total all-electron energy =    -16167.878900 Ry

     The total energy is the sum of the following terms:

     one-electron contribution =    -316.87292390 Ry
     hartree contribution      =      54.82422950 Ry
     xc contribution           =     -28.95922291 Ry
     ewald contribution        =     -36.56760676 Ry
     one-center paw contrib.   =    -385.20895058 Ry
     smearing contrib. (-TS)   =      -0.00864937 Ry

     convergence has been achieved in  12 iterations

     negative rho (up, down):  2.235E-01 0.000E+00

     Forces acting on atoms (cartesian axes, Ry/au):

     atom    1 type  1   force =     0.00000000    0.00000000    0.00000000
     atom    2 type  2   force =     0.00000000    0.00000000   -0.00000000
     atom    3 type  3   force =     0.00000000    0.00000000    0.00000000

     Total force =     0.000000     Total SCF correction =     0.000000


     Computing stress (Cartesian axis) and pressure


     negative rho (up, down):  2.235E-01 0.000E+00
          total   stress  (Ry/bohr**3)                   (kbar)     P=********
  -0.14342517   0.00000000  -0.00000000     -21098.57      0.00     -0.00
   0.00000000  -0.14342517   0.00000000          0.00 -21098.57      0.00
   0.00000000   0.00000000  -0.14342517          0.00      0.00 -21098.57


     Writing output data file NNaCs.save/

     init_run     :      3.41s CPU      3.72s WALL (       1 calls)
     electrons    :    108.71s CPU    116.87s WALL (       1 calls)
     forces       :      1.26s CPU      1.47s WALL (       1 calls)
     stress       :      2.65s CPU      3.50s WALL (       1 calls)

     Called by init_run:
     wfcinit      :      2.73s CPU      2.82s WALL (       1 calls)
     potinit      :      0.14s CPU      0.20s WALL (       1 calls)
     hinit0       :      0.39s CPU      0.50s WALL (       1 calls)

     Called by electrons:
     c_bands      :     91.65s CPU     97.55s WALL (      12 calls)
     sum_band     :     14.49s CPU     15.84s WALL (      12 calls)
     v_of_rho     :      0.39s CPU      0.48s WALL (      13 calls)
     newd         :      1.43s CPU      1.52s WALL (      13 calls)
     PAW_pot      :      0.74s CPU      1.53s WALL (      13 calls)
     mix_rho      :      0.12s CPU      0.13s WALL (      12 calls)

     Called by c_bands:
     init_us_2    :      2.80s CPU      2.97s WALL (    2970 calls)
     cegterg      :     87.73s CPU     93.33s WALL (    1320 calls)

     Called by sum_band:
     sum_band:bec :      0.04s CPU      0.04s WALL (    1320 calls)
     addusdens    :      1.12s CPU      1.21s WALL (      12 calls)

     Called by *egterg:
     h_psi        :     68.58s CPU     73.08s WALL (    8293 calls)
     s_psi        :      4.79s CPU      4.97s WALL (    8293 calls)
     g_psi        :      0.22s CPU      0.23s WALL (    6863 calls)
     cdiaghg      :      1.74s CPU      1.85s WALL (    8183 calls)

     Called by h_psi:
     h_psi:pot    :     67.78s CPU     72.23s WALL (    8293 calls)
     h_psi:calbec :      8.04s CPU      8.55s WALL (    8293 calls)
     vloc_psi     :     53.75s CPU     57.37s WALL (    8293 calls)
     add_vuspsi   :      5.92s CPU      6.26s WALL (    8293 calls)

     General routines
     calbec       :     10.46s CPU     11.49s WALL (   10163 calls)
     fft          :      0.23s CPU      0.33s WALL (     169 calls)
     ffts         :      0.01s CPU      0.01s WALL (      12 calls)
     fftw         :     42.96s CPU     46.39s WALL (   99520 calls)

     Parallel routines
     fft_scatt_xy :      6.23s CPU      6.64s WALL (   99701 calls)
     fft_scatt_yz :      9.57s CPU     11.08s WALL (   99701 calls)

     PWSCF        :  1m57.87s CPU     2m 7.63s WALL


   This run was terminated on:  13:42:11  23Oct2018            

=------------------------------------------------------------------------------=
   JOB DONE.
=------------------------------------------------------------------------------=
