
     Program PWSCF v.6.3MaX starts on 23Oct2018 at 15:51:40 

     This program is part of the open-source Quantum ESPRESSO suite
     for quantum simulation of materials; please cite
         "P. Giannozzi et al., J. Phys.:Condens. Matter 21 395502 (2009);
         "P. Giannozzi et al., J. Phys.:Condens. Matter 29 465901 (2017);
          URL http://www.quantum-espresso.org", 
     in publications or presentations arising from this work. More details at
     http://www.quantum-espresso.org/quote

     Parallel version (MPI), running on     8 processors

     MPI processes distributed on     1 nodes
     R & G space division:  proc/nbgrp/npool/nimage =       8
     Waiting for input...
     Reading input from standard input
Warning: card &CELL ignored
Warning: card                CELL_DYNAMICS = 'BFGS' , ignored
Warning: card / ignored

     Current dimensions of program PWSCF are:
     Max number of different atomic species (ntypx) = 10
     Max number of k-points (npk) =  40000
     Max angular momentum in pseudopotentials (lmaxx) =  3
               file N.pbe-n-kjpaw_psl.1.0.0.UPF: wavefunction(s)  2S renormalized
               file Na.pbe-spnl-kjpaw_psl.1.0.0.UPF: wavefunction(s)  2P renormalized

     Subspace diagonalization in iterative solution of the eigenvalue problem:
     a serial algorithm will be used


     Parallelization info
     --------------------
     sticks:   dense  smooth     PW     G-vecs:    dense   smooth      PW
     Min         284     284     82                 9001     9001    1388
     Max         285     285     83                 9004     9004    1392
     Sum        2275    2275    661                72017    72017   11113



     bravais-lattice index     =            2
     lattice parameter (alat)  =      14.4000  a.u.
     unit-cell volume          =     746.4960 (a.u.)^3
     number of atoms/cell      =            3
     number of atomic types    =            3
     number of electrons       =         9.00
     number of Kohn-Sham states=            9
     kinetic-energy cutoff     =      80.0000  Ry
     charge density cutoff     =     320.0000  Ry
     convergence threshold     =      1.0E-09
     mixing beta               =       0.4000
     number of iterations used =            8  plain     mixing
     Exchange-correlation      = SLA PW PBX PBC ( 1  4  3  4 0 0)

     celldm(1)=  14.400000  celldm(2)=   0.000000  celldm(3)=   0.000000
     celldm(4)=   0.000000  celldm(5)=   0.000000  celldm(6)=   0.000000

     crystal axes: (cart. coord. in units of alat)
               a(1) = (  -0.500000   0.000000   0.500000 )  
               a(2) = (   0.000000   0.500000   0.500000 )  
               a(3) = (  -0.500000   0.500000   0.000000 )  

     reciprocal axes: (cart. coord. in units 2 pi/alat)
               b(1) = ( -1.000000 -1.000000  1.000000 )  
               b(2) = (  1.000000  1.000000  1.000000 )  
               b(3) = ( -1.000000  1.000000 -1.000000 )  


     PseudoPot. # 1 for N  read from file:
     ./ps/N.pbe-n-kjpaw_psl.1.0.0.UPF
     MD5 check sum: 200139db3989ad6e773ddd42f12fc3a8
     Pseudo is Projector augmented-wave + core cor, Zval =  5.0
     Generated using "atomic" code by A. Dal Corso v.6.3
     Shape of augmentation charge: PSQ
     Using radial grid of 1085 points,  4 beta functions with: 
                l(1) =   0
                l(2) =   0
                l(3) =   1
                l(4) =   1
     Q(r) pseudized with 0 coefficients 


     PseudoPot. # 2 for Na read from file:
     ./ps/Na.pbe-spnl-kjpaw_psl.1.0.0.UPF
     MD5 check sum: 09e782c158f17eb2240230c4112357ee
     Pseudo is Projector augmented-wave + core cor, Zval =  9.0
     Generated using "atomic" code by A. Dal Corso v.6.3
     Shape of augmentation charge: PSQ
     Using radial grid of 1121 points,  4 beta functions with: 
                l(1) =   0
                l(2) =   0
                l(3) =   1
                l(4) =   1
     Q(r) pseudized with 0 coefficients 


     PseudoPot. # 3 for Cs read from file:
     ./ps/Cs.pbe-spnl-kjpaw_psl.1.0.0.UPF
     MD5 check sum: f98336d4a4407e24c1ab1e3bc36275e8
     Pseudo is Projector augmented-wave + core cor, Zval = -5.0
     Generated using "atomic" code by A. Dal Corso v.6.2.2
     Shape of augmentation charge: PSQ
     Using radial grid of 1251 points,  6 beta functions with: 
                l(1) =   0
                l(2) =   0
                l(3) =   1
                l(4) =   1
                l(5) =   2
                l(6) =   2
     Q(r) pseudized with 0 coefficients 


     atomic species   valence    mass     pseudopotential
        N              5.00    14.00670     N ( 1.00)
        Na             9.00    22.98977     Na( 1.00)
        Cs            -5.00   132.90545     Cs( 1.00)

     24 Sym. Ops. (no inversion) found



   Cartesian axes

     site n.     atom                  positions (alat units)
         1           N   tau(   1) = (   0.0000000   0.0000000   0.0000000  )
         2           Na  tau(   2) = (  -0.2500000   0.2500000   0.2500000  )
         3           Cs  tau(   3) = (  -0.7500000   0.7500000   0.7500000  )

     number of k points=   110  Methfessel-Paxton smearing, width (Ry)=  0.0200

     Number of k-points >= 100: set verbosity='high' to print them.

     Dense  grid:    72017 G-vectors     FFT dimensions: (  60,  60,  60)

     Estimated max dynamical RAM per process >      61.51 MB

     Estimated total dynamical RAM >     492.09 MB

     Check: negative/imaginary core charge=   -0.000002    0.000000

     Initial potential from superposition of free atoms

     starting charge   22.95298, renormalised to    9.00000
     Starting wfcs are   14 randomized atomic wfcs
     Checking if some PAW data can be deallocated... 

     total cpu time spent up to now is        5.7 secs

     Self-consistent Calculation

     iteration #  1     ecut=    80.00 Ry     beta= 0.40
     Davidson diagonalization with overlap
     ethr =  1.00E-02,  avg # of iterations =  5.0

     total cpu time spent up to now is       16.7 secs

     total energy              =    -720.89521035 Ry
     Harris-Foulkes estimate   =    -748.68276252 Ry
     estimated scf accuracy    <      48.25407189 Ry

     iteration #  2     ecut=    80.00 Ry     beta= 0.40
     Davidson diagonalization with overlap
     ethr =  1.00E-02,  avg # of iterations =  3.0

     total cpu time spent up to now is       24.8 secs

     total energy              =    -716.44918274 Ry
     Harris-Foulkes estimate   =    -723.24907912 Ry
     estimated scf accuracy    <       8.31705231 Ry

     iteration #  3     ecut=    80.00 Ry     beta= 0.40
     Davidson diagonalization with overlap
     ethr =  1.00E-02,  avg # of iterations =  8.0

     negative rho (up, down):  6.263E-02 0.000E+00

     total cpu time spent up to now is       37.7 secs

     total energy              =    -717.77815474 Ry
     Harris-Foulkes estimate   =    -717.97756340 Ry
     estimated scf accuracy    <       0.64820553 Ry

     iteration #  4     ecut=    80.00 Ry     beta= 0.40
     Davidson diagonalization with overlap
     ethr =  7.20E-03,  avg # of iterations =  1.5

     negative rho (up, down):  2.276E-01 0.000E+00

     total cpu time spent up to now is       43.3 secs

     total energy              =    -717.66400227 Ry
     Harris-Foulkes estimate   =    -717.78682700 Ry
     estimated scf accuracy    <       0.24651784 Ry

     iteration #  5     ecut=    80.00 Ry     beta= 0.40
     Davidson diagonalization with overlap
     ethr =  2.74E-03,  avg # of iterations =  2.5

     negative rho (up, down):  2.318E-01 0.000E+00

     total cpu time spent up to now is       49.5 secs

     total energy              =    -717.67360392 Ry
     Harris-Foulkes estimate   =    -717.67793011 Ry
     estimated scf accuracy    <       0.00604613 Ry

     iteration #  6     ecut=    80.00 Ry     beta= 0.40
     Davidson diagonalization with overlap
     ethr =  6.72E-05,  avg # of iterations =  4.1

     negative rho (up, down):  2.321E-01 0.000E+00

     total cpu time spent up to now is       58.0 secs

     total energy              =    -717.64626987 Ry
     Harris-Foulkes estimate   =    -717.84122078 Ry
     estimated scf accuracy    <      35.94500818 Ry

     iteration #  7     ecut=    80.00 Ry     beta= 0.40
     Davidson diagonalization with overlap
     ethr =  6.72E-05,  avg # of iterations =  1.0

     negative rho (up, down):  2.388E-01 0.000E+00

     total cpu time spent up to now is       63.4 secs

     total energy              =    -717.62042248 Ry
     Harris-Foulkes estimate   =    -717.69335295 Ry
     estimated scf accuracy    <       5.03889734 Ry

     iteration #  8     ecut=    80.00 Ry     beta= 0.40
     Davidson diagonalization with overlap
     ethr =  6.72E-05,  avg # of iterations =  1.0

     negative rho (up, down):  2.415E-01 0.000E+00

     total cpu time spent up to now is       68.8 secs

     total energy              =    -717.67640480 Ry
     Harris-Foulkes estimate   =    -717.67784874 Ry
     estimated scf accuracy    <       0.02259058 Ry

     iteration #  9     ecut=    80.00 Ry     beta= 0.40
     Davidson diagonalization with overlap
     ethr =  6.72E-05,  avg # of iterations =  1.0

     negative rho (up, down):  2.410E-01 0.000E+00

     total cpu time spent up to now is       74.2 secs

     total energy              =    -717.67657663 Ry
     Harris-Foulkes estimate   =    -717.67595223 Ry
     estimated scf accuracy    <       0.04474627 Ry

     iteration # 10     ecut=    80.00 Ry     beta= 0.40
     Davidson diagonalization with overlap
     ethr =  6.72E-05,  avg # of iterations =  1.0

     negative rho (up, down):  2.413E-01 0.000E+00

     total cpu time spent up to now is       79.4 secs

     total energy              =    -717.67639917 Ry
     Harris-Foulkes estimate   =    -717.67662882 Ry
     estimated scf accuracy    <       0.05413868 Ry

     iteration # 11     ecut=    80.00 Ry     beta= 0.40
     Davidson diagonalization with overlap
     ethr =  6.72E-05,  avg # of iterations =  1.0

     negative rho (up, down):  2.410E-01 0.000E+00

     total cpu time spent up to now is       84.8 secs

     total energy              =    -717.67581022 Ry
     Harris-Foulkes estimate   =    -717.67639865 Ry
     estimated scf accuracy    <       0.05438756 Ry

     iteration # 12     ecut=    80.00 Ry     beta= 0.40
     Davidson diagonalization with overlap
     ethr =  6.72E-05,  avg # of iterations =  1.0

     negative rho (up, down):  2.414E-01 0.000E+00

     total cpu time spent up to now is       90.2 secs

     total energy              =    -717.67638070 Ry
     Harris-Foulkes estimate   =    -717.67584013 Ry
     estimated scf accuracy    <       0.04012206 Ry

     iteration # 13     ecut=    80.00 Ry     beta= 0.40
     Davidson diagonalization with overlap
     ethr =  6.72E-05,  avg # of iterations =  1.0

     negative rho (up, down):  2.407E-01 0.000E+00

     total cpu time spent up to now is       95.5 secs

     total energy              =    -717.67538031 Ry
     Harris-Foulkes estimate   =    -717.67643589 Ry
     estimated scf accuracy    <       0.05438734 Ry

     iteration # 14     ecut=    80.00 Ry     beta= 0.40
     Davidson diagonalization with overlap
     ethr =  6.72E-05,  avg # of iterations =  1.0

     negative rho (up, down):  2.395E-01 0.000E+00

     total cpu time spent up to now is      100.8 secs

     total energy              =    -717.67464075 Ry
     Harris-Foulkes estimate   =    -717.67551679 Ry
     estimated scf accuracy    <       0.02020956 Ry

     iteration # 15     ecut=    80.00 Ry     beta= 0.40
     Davidson diagonalization with overlap
     ethr =  6.72E-05,  avg # of iterations =  1.0

     negative rho (up, down):  2.403E-01 0.000E+00

     total cpu time spent up to now is      106.1 secs

     total energy              =    -717.67445454 Ry
     Harris-Foulkes estimate   =    -717.67571692 Ry
     estimated scf accuracy    <       0.06636927 Ry

     iteration # 16     ecut=    80.00 Ry     beta= 0.40
     Davidson diagonalization with overlap
     ethr =  6.72E-05,  avg # of iterations =  1.0

     negative rho (up, down):  2.403E-01 0.000E+00

     total cpu time spent up to now is      111.5 secs

     total energy              =    -717.67536622 Ry
     Harris-Foulkes estimate   =    -717.67536655 Ry
     estimated scf accuracy    <       0.00710144 Ry

     iteration # 17     ecut=    80.00 Ry     beta= 0.40
     Davidson diagonalization with overlap
     ethr =  6.72E-05,  avg # of iterations =  1.0

     negative rho (up, down):  2.401E-01 0.000E+00

     total cpu time spent up to now is      116.9 secs

     total energy              =    -717.67528287 Ry
     Harris-Foulkes estimate   =    -717.67536632 Ry
     estimated scf accuracy    <       0.00707813 Ry

     iteration # 18     ecut=    80.00 Ry     beta= 0.40
     Davidson diagonalization with overlap
     ethr =  6.72E-05,  avg # of iterations =  1.0

     negative rho (up, down):  2.401E-01 0.000E+00

     total cpu time spent up to now is      122.2 secs

     total energy              =    -717.67530176 Ry
     Harris-Foulkes estimate   =    -717.67530859 Ry
     estimated scf accuracy    <       0.00092894 Ry

     iteration # 19     ecut=    80.00 Ry     beta= 0.40
     Davidson diagonalization with overlap
     ethr =  1.03E-05,  avg # of iterations =  1.0

     negative rho (up, down):  2.401E-01 0.000E+00

     total cpu time spent up to now is      127.5 secs

     total energy              =    -717.67530514 Ry
     Harris-Foulkes estimate   =    -717.67530323 Ry
     estimated scf accuracy    <       0.00029677 Ry

     iteration # 20     ecut=    80.00 Ry     beta= 0.40
     Davidson diagonalization with overlap
     ethr =  3.30E-06,  avg # of iterations =  1.0

     negative rho (up, down):  2.401E-01 0.000E+00

     total cpu time spent up to now is      132.8 secs

     total energy              =    -717.67530480 Ry
     Harris-Foulkes estimate   =    -717.67530550 Ry
     estimated scf accuracy    <       0.00056487 Ry

     iteration # 21     ecut=    80.00 Ry     beta= 0.40
     Davidson diagonalization with overlap
     ethr =  3.30E-06,  avg # of iterations =  1.0

     negative rho (up, down):  2.400E-01 0.000E+00

     total cpu time spent up to now is      138.1 secs

     total energy              =    -717.67529317 Ry
     Harris-Foulkes estimate   =    -717.67530483 Ry
     estimated scf accuracy    <       0.00048488 Ry

     iteration # 22     ecut=    80.00 Ry     beta= 0.40
     Davidson diagonalization with overlap
     ethr =  3.30E-06,  avg # of iterations =  1.0

     negative rho (up, down):  2.401E-01 0.000E+00

     total cpu time spent up to now is      143.3 secs

     total energy              =    -717.67529978 Ry
     Harris-Foulkes estimate   =    -717.67530171 Ry
     estimated scf accuracy    <       0.00011488 Ry

     iteration # 23     ecut=    80.00 Ry     beta= 0.40
     Davidson diagonalization with overlap
     ethr =  1.28E-06,  avg # of iterations =  1.0

     negative rho (up, down):  2.401E-01 0.000E+00

     total cpu time spent up to now is      148.7 secs

     total energy              =    -717.67530086 Ry
     Harris-Foulkes estimate   =    -717.67530081 Ry
     estimated scf accuracy    <       0.00000041 Ry

     iteration # 24     ecut=    80.00 Ry     beta= 0.40
     Davidson diagonalization with overlap
     ethr =  4.52E-09,  avg # of iterations =  1.0

     negative rho (up, down):  2.400E-01 0.000E+00

     total cpu time spent up to now is      154.1 secs

     total energy              =    -717.67530054 Ry
     Harris-Foulkes estimate   =    -717.67530102 Ry
     estimated scf accuracy    <       0.00002626 Ry

     iteration # 25     ecut=    80.00 Ry     beta= 0.40
     Davidson diagonalization with overlap
     ethr =  4.52E-09,  avg # of iterations =  1.0

     negative rho (up, down):  2.400E-01 0.000E+00

     total cpu time spent up to now is      159.4 secs

     total energy              =    -717.67530080 Ry
     Harris-Foulkes estimate   =    -717.67530081 Ry
     estimated scf accuracy    <       0.00000052 Ry

     iteration # 26     ecut=    80.00 Ry     beta= 0.40
     Davidson diagonalization with overlap
     ethr =  4.52E-09,  avg # of iterations =  1.0

     negative rho (up, down):  2.400E-01 0.000E+00

     total cpu time spent up to now is      164.6 secs

     total energy              =    -717.67530081 Ry
     Harris-Foulkes estimate   =    -717.67530081 Ry
     estimated scf accuracy    <       0.00000023 Ry

     iteration # 27     ecut=    80.00 Ry     beta= 0.40
     Davidson diagonalization with overlap
     ethr =  2.53E-09,  avg # of iterations =  1.0

     negative rho (up, down):  2.400E-01 0.000E+00

     total cpu time spent up to now is      169.9 secs

     total energy              =    -717.67530081 Ry
     Harris-Foulkes estimate   =    -717.67530081 Ry
     estimated scf accuracy    <          2.5E-09 Ry

     iteration # 28     ecut=    80.00 Ry     beta= 0.40
     Davidson diagonalization with overlap
     ethr =  2.74E-11,  avg # of iterations =  2.5

     negative rho (up, down):  2.400E-01 0.000E+00

     total cpu time spent up to now is      176.0 secs

     total energy              =    -717.67530081 Ry
     Harris-Foulkes estimate   =    -717.67530081 Ry
     estimated scf accuracy    <          3.9E-09 Ry

     iteration # 29     ecut=    80.00 Ry     beta= 0.40
     Davidson diagonalization with overlap
     ethr =  2.74E-11,  avg # of iterations =  1.0

     negative rho (up, down):  2.400E-01 0.000E+00

     total cpu time spent up to now is      181.3 secs

     total energy              =    -717.67530081 Ry
     Harris-Foulkes estimate   =    -717.67530081 Ry
     estimated scf accuracy    <          7.0E-09 Ry

     iteration # 30     ecut=    80.00 Ry     beta= 0.40
     Davidson diagonalization with overlap
     ethr =  2.74E-11,  avg # of iterations =  1.0

     negative rho (up, down):  2.400E-01 0.000E+00

     total cpu time spent up to now is      186.7 secs

     End of self-consistent calculation

     Number of k-points >= 100: set verbosity='high' to print the bands.

     the Fermi energy is  -349.0451 ev

!    total energy              =    -717.67530081 Ry
     Harris-Foulkes estimate   =    -717.67530081 Ry
     estimated scf accuracy    <          1.5E-10 Ry

     total all-electron energy =    -16172.761077 Ry

     The total energy is the sum of the following terms:

     one-electron contribution =    -320.72766363 Ry
     hartree contribution      =      54.42062149 Ry
     xc contribution           =     -28.96827921 Ry
     ewald contribution        =     -37.12627853 Ry
     one-center paw contrib.   =    -385.26890437 Ry
     smearing contrib. (-TS)   =      -0.00479655 Ry

     convergence has been achieved in  30 iterations

     negative rho (up, down):  2.400E-01 0.000E+00

     Forces acting on atoms (cartesian axes, Ry/au):

     atom    1 type  1   force =     0.00000000   -0.00000000    0.00000000
     atom    2 type  2   force =     0.00000000    0.00000000    0.00000000
     atom    3 type  3   force =    -0.00000000    0.00000000   -0.00000000

     Total force =     0.000000     Total SCF correction =     0.000000


     Computing stress (Cartesian axis) and pressure


     negative rho (up, down):  2.400E-01 0.000E+00
          total   stress  (Ry/bohr**3)                   (kbar)     P=********
  -0.13573264   0.00000000   0.00000000     -19966.96      0.00      0.00
   0.00000000  -0.13573264  -0.00000000          0.00 -19966.96     -0.00
   0.00000000  -0.00000000  -0.13573264          0.00     -0.00 -19966.96


     Writing output data file NNaCs.save/

     init_run     :      3.50s CPU      3.81s WALL (       1 calls)
     electrons    :    173.77s CPU    180.97s WALL (       1 calls)
     forces       :      1.02s CPU      1.05s WALL (       1 calls)
     stress       :      2.29s CPU      2.33s WALL (       1 calls)

     Called by init_run:
     wfcinit      :      2.79s CPU      2.89s WALL (       1 calls)
     potinit      :      0.12s CPU      0.21s WALL (       1 calls)
     hinit0       :      0.43s CPU      0.53s WALL (       1 calls)

     Called by electrons:
     c_bands      :    132.21s CPU    136.05s WALL (      30 calls)
     sum_band     :     35.74s CPU     37.00s WALL (      30 calls)
     v_of_rho     :      0.86s CPU      1.10s WALL (      31 calls)
     newd         :      3.06s CPU      3.11s WALL (      31 calls)
     PAW_pot      :      1.61s CPU      3.47s WALL (      31 calls)
     mix_rho      :      0.35s CPU      0.36s WALL (      30 calls)

     Called by c_bands:
     init_us_2    :      6.23s CPU      6.40s WALL (    6930 calls)
     cegterg      :    122.88s CPU    126.47s WALL (    3300 calls)

     Called by sum_band:
     sum_band:bec :      0.10s CPU      0.11s WALL (    3300 calls)
     addusdens    :      2.59s CPU      2.60s WALL (      30 calls)

     Called by *egterg:
     h_psi        :    103.70s CPU    106.97s WALL (    8878 calls)
     s_psi        :      6.24s CPU      6.34s WALL (    8878 calls)
     g_psi        :      0.25s CPU      0.25s WALL (    5468 calls)
     cdiaghg      :      1.42s CPU      1.45s WALL (    8768 calls)

     Called by h_psi:
     h_psi:pot    :    101.68s CPU    104.89s WALL (    8878 calls)
     h_psi:calbec :      9.82s CPU     10.12s WALL (    8878 calls)
     vloc_psi     :     84.73s CPU     87.50s WALL (    8878 calls)
     add_vuspsi   :      7.03s CPU      7.20s WALL (    8878 calls)

     General routines
     calbec       :     13.97s CPU     14.48s WALL (   12728 calls)
     fft          :      0.37s CPU      0.44s WALL (     367 calls)
     ffts         :      0.04s CPU      0.04s WALL (      30 calls)
     fftw         :     72.74s CPU     75.19s WALL (  169098 calls)

     Parallel routines
     fft_scatt_xy :     12.24s CPU     12.67s WALL (  169495 calls)
     fft_scatt_yz :     14.00s CPU     14.54s WALL (  169495 calls)

     PWSCF        :  3m 2.55s CPU     3m10.31s WALL


   This run was terminated on:  15:54:50  23Oct2018            

=------------------------------------------------------------------------------=
   JOB DONE.
=------------------------------------------------------------------------------=
