
     Program PWSCF v.6.3MaX starts on 23Oct2018 at 13:15: 7 

     This program is part of the open-source Quantum ESPRESSO suite
     for quantum simulation of materials; please cite
         "P. Giannozzi et al., J. Phys.:Condens. Matter 21 395502 (2009);
         "P. Giannozzi et al., J. Phys.:Condens. Matter 29 465901 (2017);
          URL http://www.quantum-espresso.org", 
     in publications or presentations arising from this work. More details at
     http://www.quantum-espresso.org/quote

     Parallel version (MPI), running on     8 processors

     MPI processes distributed on     1 nodes
     R & G space division:  proc/nbgrp/npool/nimage =       8
     Waiting for input...
     Reading input from standard input
Warning: card &CELL ignored
Warning: card                CELL_DYNAMICS = 'BFGS' , ignored
Warning: card / ignored

     Current dimensions of program PWSCF are:
     Max number of different atomic species (ntypx) = 10
     Max number of k-points (npk) =  40000
     Max angular momentum in pseudopotentials (lmaxx) =  3
               file N.pbe-n-kjpaw_psl.1.0.0.UPF: wavefunction(s)  2S renormalized
               file Na.pbe-spnl-kjpaw_psl.1.0.0.UPF: wavefunction(s)  2P renormalized

     Subspace diagonalization in iterative solution of the eigenvalue problem:
     a serial algorithm will be used


     Parallelization info
     --------------------
     sticks:   dense  smooth     PW     G-vecs:    dense   smooth      PW
     Min         194     194     57                 5101     5101     820
     Max         195     195     59                 5105     5105     822
     Sum        1555    1555    463                40821    40821    6567



     bravais-lattice index     =            2
     lattice parameter (alat)  =      14.6200  a.u.
     unit-cell volume          =     781.2358 (a.u.)^3
     number of atoms/cell      =            3
     number of atomic types    =            3
     number of electrons       =         9.00
     number of Kohn-Sham states=            9
     kinetic-energy cutoff     =      53.0000  Ry
     charge density cutoff     =     212.0000  Ry
     convergence threshold     =      1.0E-09
     mixing beta               =       0.4000
     number of iterations used =            8  plain     mixing
     Exchange-correlation      = SLA PW PBX PBC ( 1  4  3  4 0 0)

     celldm(1)=  14.620000  celldm(2)=   0.000000  celldm(3)=   0.000000
     celldm(4)=   0.000000  celldm(5)=   0.000000  celldm(6)=   0.000000

     crystal axes: (cart. coord. in units of alat)
               a(1) = (  -0.500000   0.000000   0.500000 )  
               a(2) = (   0.000000   0.500000   0.500000 )  
               a(3) = (  -0.500000   0.500000   0.000000 )  

     reciprocal axes: (cart. coord. in units 2 pi/alat)
               b(1) = ( -1.000000 -1.000000  1.000000 )  
               b(2) = (  1.000000  1.000000  1.000000 )  
               b(3) = ( -1.000000  1.000000 -1.000000 )  


     PseudoPot. # 1 for N  read from file:
     ./../ps/N.pbe-n-kjpaw_psl.1.0.0.UPF
     MD5 check sum: 200139db3989ad6e773ddd42f12fc3a8
     Pseudo is Projector augmented-wave + core cor, Zval =  5.0
     Generated using "atomic" code by A. Dal Corso v.6.3
     Shape of augmentation charge: PSQ
     Using radial grid of 1085 points,  4 beta functions with: 
                l(1) =   0
                l(2) =   0
                l(3) =   1
                l(4) =   1
     Q(r) pseudized with 0 coefficients 


     PseudoPot. # 2 for Na read from file:
     ./../ps/Na.pbe-spnl-kjpaw_psl.1.0.0.UPF
     MD5 check sum: 09e782c158f17eb2240230c4112357ee
     Pseudo is Projector augmented-wave + core cor, Zval =  9.0
     Generated using "atomic" code by A. Dal Corso v.6.3
     Shape of augmentation charge: PSQ
     Using radial grid of 1121 points,  4 beta functions with: 
                l(1) =   0
                l(2) =   0
                l(3) =   1
                l(4) =   1
     Q(r) pseudized with 0 coefficients 


     PseudoPot. # 3 for Cs read from file:
     ./../ps/Cs.pbe-spnl-kjpaw_psl.1.0.0.UPF
     MD5 check sum: f98336d4a4407e24c1ab1e3bc36275e8
     Pseudo is Projector augmented-wave + core cor, Zval = -5.0
     Generated using "atomic" code by A. Dal Corso v.6.2.2
     Shape of augmentation charge: PSQ
     Using radial grid of 1251 points,  6 beta functions with: 
                l(1) =   0
                l(2) =   0
                l(3) =   1
                l(4) =   1
                l(5) =   2
                l(6) =   2
     Q(r) pseudized with 0 coefficients 


     atomic species   valence    mass     pseudopotential
        N              5.00    14.00670     N ( 1.00)
        Na             9.00    22.98977     Na( 1.00)
        Cs            -5.00   132.90545     Cs( 1.00)

     24 Sym. Ops. (no inversion) found



   Cartesian axes

     site n.     atom                  positions (alat units)
         1           N   tau(   1) = (   0.0000000   0.0000000   0.0000000  )
         2           Na  tau(   2) = (  -0.2500000   0.2500000   0.2500000  )
         3           Cs  tau(   3) = (  -0.7500000   0.7500000   0.7500000  )

     number of k points=   110  Methfessel-Paxton smearing, width (Ry)=  0.0200

     Number of k-points >= 100: set verbosity='high' to print them.

     Dense  grid:    40821 G-vectors     FFT dimensions: (  48,  48,  48)

     Estimated max dynamical RAM per process >      37.21 MB

     Estimated total dynamical RAM >     297.72 MB

     Check: negative/imaginary core charge=   -0.000010    0.000000

     Initial potential from superposition of free atoms

     starting charge   22.95298, renormalised to    9.00000
     Starting wfcs are   14 randomized atomic wfcs
     Checking if some PAW data can be deallocated... 

     total cpu time spent up to now is        3.7 secs

     Self-consistent Calculation

     iteration #  1     ecut=    53.00 Ry     beta= 0.40
     Davidson diagonalization with overlap
     ethr =  1.00E-02,  avg # of iterations = 12.4

     total cpu time spent up to now is        9.7 secs

     total energy              =    -717.63647605 Ry
     Harris-Foulkes estimate   =    -745.35639187 Ry
     estimated scf accuracy    <      48.04138959 Ry

     iteration #  2     ecut=    53.00 Ry     beta= 0.40
     Davidson diagonalization with overlap
     ethr =  1.00E-02,  avg # of iterations =  3.0

     total cpu time spent up to now is       12.9 secs

     total energy              =    -709.65298993 Ry
     Harris-Foulkes estimate   =    -719.46610050 Ry
     estimated scf accuracy    <      11.27837660 Ry

     iteration #  3     ecut=    53.00 Ry     beta= 0.40
     Davidson diagonalization with overlap
     ethr =  1.00E-02,  avg # of iterations =  9.9

     negative rho (up, down):  9.137E-02 0.000E+00

     total cpu time spent up to now is       19.1 secs

     total energy              =    -712.53941837 Ry
     Harris-Foulkes estimate   =    -713.21366152 Ry
     estimated scf accuracy    <       1.17754131 Ry

     iteration #  4     ecut=    53.00 Ry     beta= 0.40
     Davidson diagonalization with overlap
     ethr =  1.00E-02,  avg # of iterations =  2.9

     negative rho (up, down):  1.789E-01 0.000E+00

     total cpu time spent up to now is       21.8 secs

     total energy              =    -712.71533531 Ry
     Harris-Foulkes estimate   =    -712.91711138 Ry
     estimated scf accuracy    <       0.29409717 Ry

     iteration #  5     ecut=    53.00 Ry     beta= 0.40
     Davidson diagonalization with overlap
     ethr =  3.27E-03,  avg # of iterations =  5.4

     negative rho (up, down):  2.256E-01 0.000E+00

     total cpu time spent up to now is       25.4 secs

     total energy              =    -712.75454889 Ry
     Harris-Foulkes estimate   =    -712.82943271 Ry
     estimated scf accuracy    <       0.12679010 Ry

     iteration #  6     ecut=    53.00 Ry     beta= 0.40
     Davidson diagonalization with overlap
     ethr =  1.41E-03,  avg # of iterations =  2.3

     negative rho (up, down):  2.244E-01 0.000E+00

     total cpu time spent up to now is       28.0 secs

     total energy              =    -712.77870217 Ry
     Harris-Foulkes estimate   =    -712.77871047 Ry
     estimated scf accuracy    <       0.00003485 Ry

     iteration #  7     ecut=    53.00 Ry     beta= 0.40
     Davidson diagonalization with overlap
     ethr =  3.87E-07,  avg # of iterations = 12.8

     negative rho (up, down):  2.229E-01 0.000E+00

     total cpu time spent up to now is       35.2 secs

     total energy              =    -712.77998207 Ry
     Harris-Foulkes estimate   =    -712.78001947 Ry
     estimated scf accuracy    <       0.00003364 Ry

     iteration #  8     ecut=    53.00 Ry     beta= 0.40
     Davidson diagonalization with overlap
     ethr =  3.74E-07,  avg # of iterations =  2.9

     negative rho (up, down):  2.241E-01 0.000E+00

     total cpu time spent up to now is       37.9 secs

     total energy              =    -712.77999498 Ry
     Harris-Foulkes estimate   =    -712.78000033 Ry
     estimated scf accuracy    <       0.00000883 Ry

     iteration #  9     ecut=    53.00 Ry     beta= 0.40
     Davidson diagonalization with overlap
     ethr =  9.81E-08,  avg # of iterations =  2.0

     negative rho (up, down):  2.240E-01 0.000E+00

     total cpu time spent up to now is       40.4 secs

     total energy              =    -712.77999472 Ry
     Harris-Foulkes estimate   =    -712.77999676 Ry
     estimated scf accuracy    <       0.00000193 Ry

     iteration # 10     ecut=    53.00 Ry     beta= 0.40
     Davidson diagonalization with overlap
     ethr =  2.14E-08,  avg # of iterations =  2.0

     negative rho (up, down):  2.239E-01 0.000E+00

     total cpu time spent up to now is       42.8 secs

     total energy              =    -712.77999443 Ry
     Harris-Foulkes estimate   =    -712.77999491 Ry
     estimated scf accuracy    <       0.00000040 Ry

     iteration # 11     ecut=    53.00 Ry     beta= 0.40
     Davidson diagonalization with overlap
     ethr =  4.43E-09,  avg # of iterations =  2.9

     negative rho (up, down):  2.239E-01 0.000E+00

     total cpu time spent up to now is       45.4 secs

     total energy              =    -712.77999455 Ry
     Harris-Foulkes estimate   =    -712.77999455 Ry
     estimated scf accuracy    <       0.00000002 Ry

     iteration # 12     ecut=    53.00 Ry     beta= 0.40
     Davidson diagonalization with overlap
     ethr =  2.39E-10,  avg # of iterations =  2.9

     negative rho (up, down):  2.238E-01 0.000E+00

     total cpu time spent up to now is       48.0 secs

     total energy              =    -712.77999454 Ry
     Harris-Foulkes estimate   =    -712.77999455 Ry
     estimated scf accuracy    <       0.00000002 Ry

     iteration # 13     ecut=    53.00 Ry     beta= 0.40
     Davidson diagonalization with overlap
     ethr =  2.26E-10,  avg # of iterations =  2.0

     negative rho (up, down):  2.238E-01 0.000E+00

     total cpu time spent up to now is       50.5 secs

     End of self-consistent calculation

     Number of k-points >= 100: set verbosity='high' to print the bands.

     the Fermi energy is  -323.8651 ev

!    total energy              =    -712.77999456 Ry
     Harris-Foulkes estimate   =    -712.77999455 Ry
     estimated scf accuracy    <          8.2E-10 Ry

     total all-electron energy =    -16167.865770 Ry

     The total energy is the sum of the following terms:

     one-electron contribution =    -316.86634233 Ry
     hartree contribution      =      54.83223893 Ry
     xc contribution           =     -28.96035209 Ry
     ewald contribution        =     -36.56760685 Ry
     one-center paw contrib.   =    -385.20929250 Ry
     smearing contrib. (-TS)   =      -0.00863972 Ry

     convergence has been achieved in  13 iterations

     negative rho (up, down):  2.238E-01 0.000E+00

     Forces acting on atoms (cartesian axes, Ry/au):

     atom    1 type  1   force =     0.00000000    0.00000000    0.00000000
     atom    2 type  2   force =     0.00000000    0.00000000    0.00000000
     atom    3 type  3   force =    -0.00000000   -0.00000000    0.00000000

     Total force =     0.000000     Total SCF correction =     0.000000


     Computing stress (Cartesian axis) and pressure


     negative rho (up, down):  2.238E-01 0.000E+00
          total   stress  (Ry/bohr**3)                   (kbar)     P=********
  -0.14354182   0.00000000   0.00000000     -21115.73      0.00      0.00
   0.00000000  -0.14354182   0.00000000          0.00 -21115.73      0.00
  -0.00000000   0.00000000  -0.14354182         -0.00      0.00 -21115.73


     Writing output data file NNaCs.save/

     init_run     :      1.59s CPU      1.77s WALL (       1 calls)
     electrons    :     44.29s CPU     46.78s WALL (       1 calls)
     forces       :      0.47s CPU      0.48s WALL (       1 calls)
     stress       :      1.21s CPU      1.23s WALL (       1 calls)

     Called by init_run:
     wfcinit      :      1.11s CPU      1.16s WALL (       1 calls)
     potinit      :      0.09s CPU      0.17s WALL (       1 calls)
     hinit0       :      0.31s CPU      0.34s WALL (       1 calls)

     Called by electrons:
     c_bands      :     38.16s CPU     39.57s WALL (      13 calls)
     sum_band     :      4.66s CPU      4.89s WALL (      13 calls)
     v_of_rho     :      0.14s CPU      0.17s WALL (      14 calls)
     newd         :      0.69s CPU      0.70s WALL (      14 calls)
     PAW_pot      :      0.67s CPU      1.54s WALL (      14 calls)
     mix_rho      :      0.06s CPU      0.06s WALL (      13 calls)

     Called by c_bands:
     init_us_2    :      1.61s CPU      1.68s WALL (    3190 calls)
     cegterg      :     36.03s CPU     37.37s WALL (    1430 calls)

     Called by sum_band:
     sum_band:bec :      0.03s CPU      0.04s WALL (    1430 calls)
     addusdens    :      0.60s CPU      0.61s WALL (      13 calls)

     Called by *egterg:
     h_psi        :     25.08s CPU     26.02s WALL (    8513 calls)
     s_psi        :      2.29s CPU      2.37s WALL (    8513 calls)
     g_psi        :      0.12s CPU      0.12s WALL (    6973 calls)
     cdiaghg      :      1.77s CPU      1.83s WALL (    8403 calls)

     Called by h_psi:
     h_psi:pot    :     24.67s CPU     25.59s WALL (    8513 calls)
     h_psi:calbec :      3.59s CPU      3.76s WALL (    8513 calls)
     vloc_psi     :     18.37s CPU     19.02s WALL (    8513 calls)
     add_vuspsi   :      2.67s CPU      2.77s WALL (    8513 calls)

     General routines
     calbec       :      4.59s CPU      4.81s WALL (   10493 calls)
     fft          :      0.06s CPU      0.06s WALL (     180 calls)
     ffts         :      0.00s CPU      0.00s WALL (      13 calls)
     fftw         :     16.54s CPU     17.17s WALL (  104038 calls)

     Parallel routines
     fft_scatt_xy :      2.64s CPU      2.73s WALL (  104231 calls)
     fft_scatt_yz :      4.46s CPU      4.67s WALL (  104231 calls)

     PWSCF        :    49.51s CPU        52.34s WALL


   This run was terminated on:  13:15:59  23Oct2018            

=------------------------------------------------------------------------------=
   JOB DONE.
=------------------------------------------------------------------------------=
