
     Program PWSCF v.6.3MaX starts on 24Oct2018 at  0:47:34 

     This program is part of the open-source Quantum ESPRESSO suite
     for quantum simulation of materials; please cite
         "P. Giannozzi et al., J. Phys.:Condens. Matter 21 395502 (2009);
         "P. Giannozzi et al., J. Phys.:Condens. Matter 29 465901 (2017);
          URL http://www.quantum-espresso.org", 
     in publications or presentations arising from this work. More details at
     http://www.quantum-espresso.org/quote

     Parallel version (MPI), running on     8 processors

     MPI processes distributed on     1 nodes
     R & G space division:  proc/nbgrp/npool/nimage =       8
     Waiting for input...
     Reading input from standard input
Warning: card &CELL ignored
Warning: card                CELL_DYNAMICS = 'BFGS' , ignored
Warning: card / ignored

     Current dimensions of program PWSCF are:
     Max number of different atomic species (ntypx) = 10
     Max number of k-points (npk) =  40000
     Max angular momentum in pseudopotentials (lmaxx) =  3
     Message from routine iosys:
     minimal I/O required, wf_collect reset to FALSE
               file N.pbe-n-kjpaw_psl.1.0.0.UPF: wavefunction(s)  2S renormalized
               file Na.pbe-spnl-kjpaw_psl.1.0.0.UPF: wavefunction(s)  2P renormalized

     Subspace diagonalization in iterative solution of the eigenvalue problem:
     a serial algorithm will be used


     Parallelization info
     --------------------
     sticks:   dense  smooth     PW     G-vecs:    dense   smooth      PW
     Min         198     198     59                 5206     5206     841
     Max         199     199     60                 5208     5208     842
     Sum        1585    1585    475                41655    41655    6735



     bravais-lattice index     =            2
     lattice parameter (alat)  =      12.0000  a.u.
     unit-cell volume          =     432.0000 (a.u.)^3
     number of atoms/cell      =            3
     number of atomic types    =            3
     number of electrons       =         9.00
     number of Kohn-Sham states=            9
     kinetic-energy cutoff     =      80.0000  Ry
     charge density cutoff     =     320.0000  Ry
     convergence threshold     =      1.0E-09
     mixing beta               =       0.4000
     number of iterations used =            8  plain     mixing
     Exchange-correlation      = SLA PW PBX PBC ( 1  4  3  4 0 0)

     celldm(1)=  12.000000  celldm(2)=   0.000000  celldm(3)=   0.000000
     celldm(4)=   0.000000  celldm(5)=   0.000000  celldm(6)=   0.000000

     crystal axes: (cart. coord. in units of alat)
               a(1) = (  -0.500000   0.000000   0.500000 )  
               a(2) = (   0.000000   0.500000   0.500000 )  
               a(3) = (  -0.500000   0.500000   0.000000 )  

     reciprocal axes: (cart. coord. in units 2 pi/alat)
               b(1) = ( -1.000000 -1.000000  1.000000 )  
               b(2) = (  1.000000  1.000000  1.000000 )  
               b(3) = ( -1.000000  1.000000 -1.000000 )  


     PseudoPot. # 1 for N  read from file:
     ./ps/N.pbe-n-kjpaw_psl.1.0.0.UPF
     MD5 check sum: 200139db3989ad6e773ddd42f12fc3a8
     Pseudo is Projector augmented-wave + core cor, Zval =  5.0
     Generated using "atomic" code by A. Dal Corso v.6.3
     Shape of augmentation charge: PSQ
     Using radial grid of 1085 points,  4 beta functions with: 
                l(1) =   0
                l(2) =   0
                l(3) =   1
                l(4) =   1
     Q(r) pseudized with 0 coefficients 


     PseudoPot. # 2 for Na read from file:
     ./ps/Na.pbe-spnl-kjpaw_psl.1.0.0.UPF
     MD5 check sum: 09e782c158f17eb2240230c4112357ee
     Pseudo is Projector augmented-wave + core cor, Zval =  9.0
     Generated using "atomic" code by A. Dal Corso v.6.3
     Shape of augmentation charge: PSQ
     Using radial grid of 1121 points,  4 beta functions with: 
                l(1) =   0
                l(2) =   0
                l(3) =   1
                l(4) =   1
     Q(r) pseudized with 0 coefficients 


     PseudoPot. # 3 for Cs read from file:
     ./ps/Cs.pbe-spnl-kjpaw_psl.1.0.0.UPF
     MD5 check sum: f98336d4a4407e24c1ab1e3bc36275e8
     Pseudo is Projector augmented-wave + core cor, Zval = -5.0
     Generated using "atomic" code by A. Dal Corso v.6.2.2
     Shape of augmentation charge: PSQ
     Using radial grid of 1251 points,  6 beta functions with: 
                l(1) =   0
                l(2) =   0
                l(3) =   1
                l(4) =   1
                l(5) =   2
                l(6) =   2
     Q(r) pseudized with 0 coefficients 


     atomic species   valence    mass     pseudopotential
        N              5.00    14.00670     N ( 1.00)
        Na             9.00    22.98977     Na( 1.00)
        Cs            -5.00   132.90545     Cs( 1.00)

     24 Sym. Ops. (no inversion) found



   Cartesian axes

     site n.     atom                  positions (alat units)
         1           N   tau(   1) = (  -0.2500000   0.2500000   0.2500000  )
         2           Na  tau(   2) = (   0.0000000   0.0000000   0.0000000  )
         3           Cs  tau(   3) = (  -0.7500000   0.7500000   0.7500000  )

     number of k points=   110  Methfessel-Paxton smearing, width (Ry)=  0.0200

     Number of k-points >= 100: set verbosity='high' to print them.

     Dense  grid:    41655 G-vectors     FFT dimensions: (  50,  50,  50)

     Estimated max dynamical RAM per process >      38.15 MB

     Estimated total dynamical RAM >     305.21 MB

     Check: negative/imaginary core charge=   -0.000003    0.000000

     Initial potential from superposition of free atoms

     starting charge   22.95298, renormalised to    9.00000
     Starting wfcs are   14 randomized atomic wfcs
     Checking if some PAW data can be deallocated... 

     total cpu time spent up to now is        5.9 secs

     Self-consistent Calculation

     iteration #  1     ecut=    80.00 Ry     beta= 0.40
     Davidson diagonalization with overlap
     ethr =  1.00E-02,  avg # of iterations = 12.2

     total cpu time spent up to now is       18.7 secs

     total energy              =    -877.52498798 Ry
     Harris-Foulkes estimate   =    -886.11489117 Ry
     estimated scf accuracy    <      15.74516522 Ry

     iteration #  2     ecut=    80.00 Ry     beta= 0.40
     Davidson diagonalization with overlap
     ethr =  1.00E-02,  avg # of iterations =  2.0

     total cpu time spent up to now is       23.3 secs

     total energy              =    -877.26198614 Ry
     Harris-Foulkes estimate   =    -884.40853550 Ry
     estimated scf accuracy    <      26.62057622 Ry

     iteration #  3     ecut=    80.00 Ry     beta= 0.40
     Davidson diagonalization with overlap
     ethr =  1.00E-02,  avg # of iterations =  1.0

     negative rho (up, down):  3.671E-02 0.000E+00

     total cpu time spent up to now is       27.5 secs

     total energy              =    -878.71064208 Ry
     Harris-Foulkes estimate   =    -880.68982835 Ry
     estimated scf accuracy    <       9.11302686 Ry

     iteration #  4     ecut=    80.00 Ry     beta= 0.40
     Davidson diagonalization with overlap
     ethr =  1.00E-02,  avg # of iterations =  1.0

     negative rho (up, down):  3.026E-02 0.000E+00

     total cpu time spent up to now is       31.6 secs

     total energy              =    -876.36077288 Ry
     Harris-Foulkes estimate   =    -879.31032133 Ry
     estimated scf accuracy    <       7.19160353 Ry

     iteration #  5     ecut=    80.00 Ry     beta= 0.40
     Davidson diagonalization with overlap
     ethr =  1.00E-02,  avg # of iterations =  2.0

     negative rho (up, down):  3.162E-02 0.000E+00

     total cpu time spent up to now is       36.1 secs

     total energy              =    -880.10615105 Ry
     Harris-Foulkes estimate   =    -880.41307357 Ry
     estimated scf accuracy    <      20.35947201 Ry

     iteration #  6     ecut=    80.00 Ry     beta= 0.40
     Davidson diagonalization with overlap
     ethr =  1.00E-02,  avg # of iterations =  1.0

     negative rho (up, down):  2.974E-02 0.000E+00

     total cpu time spent up to now is       40.3 secs

     total energy              =    -880.69809494 Ry
     Harris-Foulkes estimate   =    -880.10712950 Ry
     estimated scf accuracy    <      19.97293647 Ry

     iteration #  7     ecut=    80.00 Ry     beta= 0.40
     Davidson diagonalization with overlap
     ethr =  1.00E-02,  avg # of iterations =  1.0

     negative rho (up, down):  6.754E-02 0.000E+00

     total cpu time spent up to now is       44.4 secs

     total energy              =    -873.78812499 Ry
     Harris-Foulkes estimate   =    -880.69869226 Ry
     estimated scf accuracy    <      20.67721169 Ry

     iteration #  8     ecut=    80.00 Ry     beta= 0.40
     Davidson diagonalization with overlap
     ethr =  1.00E-02,  avg # of iterations =  1.0

     negative rho (up, down):  6.457E-02 0.000E+00

     total cpu time spent up to now is       48.5 secs

     total energy              =    -882.89314445 Ry
     Harris-Foulkes estimate   =    -880.39295494 Ry
     estimated scf accuracy    <       8.30647925 Ry

     iteration #  9     ecut=    80.00 Ry     beta= 0.40
     Davidson diagonalization with overlap
     ethr =  1.00E-02,  avg # of iterations =  1.0

     negative rho (up, down):  6.828E-02 0.000E+00

     total cpu time spent up to now is       52.6 secs

     total energy              =    -883.91978215 Ry
     Harris-Foulkes estimate   =    -883.62492604 Ry
     estimated scf accuracy    <      29.03693587 Ry

     iteration # 10     ecut=    80.00 Ry     beta= 0.40
     Davidson diagonalization with overlap
     ethr =  1.00E-02,  avg # of iterations =  1.0

     negative rho (up, down):  8.196E-02 0.000E+00

     total cpu time spent up to now is       56.7 secs

     total energy              =    -884.12975093 Ry
     Harris-Foulkes estimate   =    -883.92041170 Ry
     estimated scf accuracy    <      29.34477614 Ry

     iteration # 11     ecut=    80.00 Ry     beta= 0.40
     Davidson diagonalization with overlap
     ethr =  1.00E-02,  avg # of iterations =  1.0

     negative rho (up, down):  7.279E-02 0.000E+00

     total cpu time spent up to now is       60.8 secs

     total energy              =    -883.74925875 Ry
     Harris-Foulkes estimate   =    -884.13055838 Ry
     estimated scf accuracy    <      29.56189672 Ry

     iteration # 12     ecut=    80.00 Ry     beta= 0.40
     Davidson diagonalization with overlap
     ethr =  1.00E-02,  avg # of iterations =  1.0

     negative rho (up, down):  1.073E-01 0.000E+00

     total cpu time spent up to now is       65.2 secs

     total energy              =    -862.68644974 Ry
     Harris-Foulkes estimate   =    -883.74949134 Ry
     estimated scf accuracy    <      29.15112487 Ry

     iteration # 13     ecut=    80.00 Ry     beta= 0.40
     Davidson diagonalization with overlap
     ethr =  1.00E-02,  avg # of iterations =  3.0

     negative rho (up, down):  7.381E-02 0.000E+00

     total cpu time spent up to now is       70.8 secs

     total energy              =    -871.81716086 Ry
     Harris-Foulkes estimate   =    -902.94483617 Ry
     estimated scf accuracy    <      60.62812754 Ry

     iteration # 14     ecut=    80.00 Ry     beta= 0.40
     Davidson diagonalization with overlap
     ethr =  1.00E-02,  avg # of iterations =  3.0

     negative rho (up, down):  8.329E-03 0.000E+00

     total cpu time spent up to now is       76.7 secs

     total energy              =    -879.68913850 Ry
     Harris-Foulkes estimate   =    -879.81744077 Ry
     estimated scf accuracy    <       6.98749199 Ry

     iteration # 15     ecut=    80.00 Ry     beta= 0.40
     Davidson diagonalization with overlap
     ethr =  1.00E-02,  avg # of iterations =  1.0

     negative rho (up, down):  6.068E-03 0.000E+00

     total cpu time spent up to now is       80.7 secs

     total energy              =    -879.56057955 Ry
     Harris-Foulkes estimate   =    -879.70990687 Ry
     estimated scf accuracy    <       7.37032453 Ry

     iteration # 16     ecut=    80.00 Ry     beta= 0.40
     Davidson diagonalization with overlap
     ethr =  1.00E-02,  avg # of iterations =  1.0

     negative rho (up, down):  1.469E-03 0.000E+00

     total cpu time spent up to now is       85.0 secs

     total energy              =    -879.43624095 Ry
     Harris-Foulkes estimate   =    -879.56354806 Ry
     estimated scf accuracy    <       7.25977866 Ry

     iteration # 17     ecut=    80.00 Ry     beta= 0.40
     Davidson diagonalization with overlap
     ethr =  1.00E-02,  avg # of iterations =  1.0

     negative rho (up, down):  2.588E-02 0.000E+00

     total cpu time spent up to now is       89.3 secs

     total energy              =    -873.40257636 Ry
     Harris-Foulkes estimate   =    -879.85987166 Ry
     estimated scf accuracy    <      19.31262160 Ry

     iteration # 18     ecut=    80.00 Ry     beta= 0.40
     Davidson diagonalization with overlap
     ethr =  1.00E-02,  avg # of iterations =  1.0

     negative rho (up, down):  2.649E-02 0.000E+00

     total cpu time spent up to now is       93.3 secs

     total energy              =    -881.35096312 Ry
     Harris-Foulkes estimate   =    -881.05908740 Ry
     estimated scf accuracy    <       8.62966993 Ry

     iteration # 19     ecut=    80.00 Ry     beta= 0.40
     Davidson diagonalization with overlap
     ethr =  1.00E-02,  avg # of iterations =  1.0

     negative rho (up, down):  3.480E-02 0.000E+00

     total cpu time spent up to now is       97.4 secs

     total energy              =    -880.85123553 Ry
     Harris-Foulkes estimate   =    -881.35581370 Ry
     estimated scf accuracy    <       8.95146071 Ry

     iteration # 20     ecut=    80.00 Ry     beta= 0.40
     Davidson diagonalization with overlap
     ethr =  1.00E-02,  avg # of iterations =  1.0

     negative rho (up, down):  4.165E-02 0.000E+00

     total cpu time spent up to now is      101.6 secs

     total energy              =    -878.93326431 Ry
     Harris-Foulkes estimate   =    -880.85289291 Ry
     estimated scf accuracy    <       8.33792172 Ry

     iteration # 21     ecut=    80.00 Ry     beta= 0.40
     Davidson diagonalization with overlap
     ethr =  1.00E-02,  avg # of iterations =  1.0

     negative rho (up, down):  1.665E-01 0.000E+00

     total cpu time spent up to now is      105.7 secs

     total energy              =    -889.44328722 Ry
     Harris-Foulkes estimate   =    -878.94530660 Ry
     estimated scf accuracy    <       6.16543094 Ry

     iteration # 22     ecut=    80.00 Ry     beta= 0.40
     Davidson diagonalization with overlap
     ethr =  1.00E-02,  avg # of iterations =  2.0

     negative rho (up, down):  4.874E-02 0.000E+00

     total cpu time spent up to now is      110.9 secs

     total energy              =    -876.75130923 Ry
     Harris-Foulkes estimate   =    -897.80980421 Ry
     estimated scf accuracy    <      44.92618499 Ry

     iteration # 23     ecut=    80.00 Ry     beta= 0.40
     Davidson diagonalization with overlap
     ethr =  1.00E-02,  avg # of iterations =  2.0

     negative rho (up, down):  4.825E-02 0.000E+00

     total cpu time spent up to now is      115.9 secs

     total energy              =    -879.55288015 Ry
     Harris-Foulkes estimate   =    -879.60193648 Ry
     estimated scf accuracy    <       6.84057208 Ry

     iteration # 24     ecut=    80.00 Ry     beta= 0.40
     Davidson diagonalization with overlap
     ethr =  1.00E-02,  avg # of iterations =  1.0

     negative rho (up, down):  5.146E-02 0.000E+00

     total cpu time spent up to now is      119.9 secs

     total energy              =    -879.64956468 Ry
     Harris-Foulkes estimate   =    -879.56049574 Ry
     estimated scf accuracy    <       6.80444092 Ry

     iteration # 25     ecut=    80.00 Ry     beta= 0.40
     Davidson diagonalization with overlap
     ethr =  1.00E-02,  avg # of iterations =  1.0

     negative rho (up, down):  8.795E-02 0.000E+00

     total cpu time spent up to now is      124.1 secs

     total energy              =    -878.87440233 Ry
     Harris-Foulkes estimate   =    -879.65179875 Ry
     estimated scf accuracy    <       6.91338324 Ry

     iteration # 26     ecut=    80.00 Ry     beta= 0.40
     Davidson diagonalization with overlap
     ethr =  1.00E-02,  avg # of iterations =  1.0

     negative rho (up, down):  4.449E-01 0.000E+00

     total cpu time spent up to now is      128.2 secs

     total energy              =    -876.00580587 Ry
     Harris-Foulkes estimate   =    -878.87799843 Ry
     estimated scf accuracy    <       5.98944061 Ry

     iteration # 27     ecut=    80.00 Ry     beta= 0.40
     Davidson diagonalization with overlap
     ethr =  1.00E-02,  avg # of iterations =  3.0

     negative rho (up, down):  1.246E-01 0.000E+00

     total cpu time spent up to now is      133.9 secs

     total energy              =    -891.89105588 Ry
     Harris-Foulkes estimate   =    -912.89713817 Ry
     estimated scf accuracy    <      76.79056736 Ry

     iteration # 28     ecut=    80.00 Ry     beta= 0.40
     Davidson diagonalization with overlap
     ethr =  1.00E-02,  avg # of iterations =  2.0

     negative rho (up, down):  1.058E-01 0.000E+00

     total cpu time spent up to now is      138.7 secs

     total energy              =    -875.77856202 Ry
     Harris-Foulkes estimate   =    -892.23183822 Ry
     estimated scf accuracy    <      49.10371699 Ry

     iteration # 29     ecut=    80.00 Ry     beta= 0.40
     Davidson diagonalization with overlap
     ethr =  1.00E-02,  avg # of iterations =  2.0

     negative rho (up, down):  8.014E-02 0.000E+00

     total cpu time spent up to now is      143.2 secs

     total energy              =    -878.57842270 Ry
     Harris-Foulkes estimate   =    -878.53639575 Ry
     estimated scf accuracy    <       5.52107932 Ry

     iteration # 30     ecut=    80.00 Ry     beta= 0.40
     Davidson diagonalization with overlap
     ethr =  1.00E-02,  avg # of iterations =  1.0

     negative rho (up, down):  1.242E-01 0.000E+00

     total cpu time spent up to now is      147.3 secs

     total energy              =    -881.30573034 Ry
     Harris-Foulkes estimate   =    -878.58467459 Ry
     estimated scf accuracy    <       6.59992646 Ry

     iteration # 31     ecut=    80.00 Ry     beta= 0.40
     Davidson diagonalization with overlap
     ethr =  1.00E-02,  avg # of iterations =  1.0

     negative rho (up, down):  1.049E-01 0.000E+00

     total cpu time spent up to now is      151.4 secs

     total energy              =    -878.15200444 Ry
     Harris-Foulkes estimate   =    -882.04068397 Ry
     estimated scf accuracy    <      10.15533702 Ry

     iteration # 32     ecut=    80.00 Ry     beta= 0.40
     Davidson diagonalization with overlap
     ethr =  1.00E-02,  avg # of iterations =  1.0

     negative rho (up, down):  1.031E-01 0.000E+00

     total cpu time spent up to now is      155.7 secs

     total energy              =    -878.62714472 Ry
     Harris-Foulkes estimate   =    -878.36093153 Ry
     estimated scf accuracy    <       5.40734287 Ry

     iteration # 33     ecut=    80.00 Ry     beta= 0.40
     Davidson diagonalization with overlap
     ethr =  1.00E-02,  avg # of iterations =  1.0

     negative rho (up, down):  1.031E-01 0.000E+00

     total cpu time spent up to now is      160.0 secs

     total energy              =    -878.64699109 Ry
     Harris-Foulkes estimate   =    -878.62941302 Ry
     estimated scf accuracy    <       4.47000310 Ry

     iteration # 34     ecut=    80.00 Ry     beta= 0.40
     Davidson diagonalization with overlap
     ethr =  1.00E-02,  avg # of iterations =  1.0

     negative rho (up, down):  9.769E-02 0.000E+00

     total cpu time spent up to now is      164.1 secs

     total energy              =    -878.06382323 Ry
     Harris-Foulkes estimate   =    -878.64785686 Ry
     estimated scf accuracy    <       5.08149511 Ry

     iteration # 35     ecut=    80.00 Ry     beta= 0.40
     Davidson diagonalization with overlap
     ethr =  1.00E-02,  avg # of iterations =  1.0

     negative rho (up, down):  9.491E-02 0.000E+00

     total cpu time spent up to now is      168.3 secs

     total energy              =    -879.21789030 Ry
     Harris-Foulkes estimate   =    -878.38895855 Ry
     estimated scf accuracy    <      17.96446182 Ry

     iteration # 36     ecut=    80.00 Ry     beta= 0.40
     Davidson diagonalization with overlap
     ethr =  1.00E-02,  avg # of iterations =  1.0

     negative rho (up, down):  9.780E-02 0.000E+00

     total cpu time spent up to now is      172.4 secs

     total energy              =    -878.68584374 Ry
     Harris-Foulkes estimate   =    -879.22033175 Ry
     estimated scf accuracy    <      19.02452760 Ry

     iteration # 37     ecut=    80.00 Ry     beta= 0.40
     Davidson diagonalization with overlap
     ethr =  1.00E-02,  avg # of iterations =  1.0

     negative rho (up, down):  8.075E-02 0.000E+00

     total cpu time spent up to now is      176.6 secs

     total energy              =    -878.30641897 Ry
     Harris-Foulkes estimate   =    -878.68677411 Ry
     estimated scf accuracy    <      18.36421750 Ry

     iteration # 38     ecut=    80.00 Ry     beta= 0.40
     Davidson diagonalization with overlap
     ethr =  1.00E-02,  avg # of iterations =  1.0

     negative rho (up, down):  7.699E-02 0.000E+00

     total cpu time spent up to now is      180.7 secs

     total energy              =    -877.83601331 Ry
     Harris-Foulkes estimate   =    -878.30823859 Ry
     estimated scf accuracy    <      10.85950811 Ry

     iteration # 39     ecut=    80.00 Ry     beta= 0.40
     Davidson diagonalization with overlap
     ethr =  1.00E-02,  avg # of iterations =  1.0

     negative rho (up, down):  9.368E-02 0.000E+00

     total cpu time spent up to now is      184.7 secs

     total energy              =    -878.38573121 Ry
     Harris-Foulkes estimate   =    -878.40084241 Ry
     estimated scf accuracy    <       5.52337986 Ry

     iteration # 40     ecut=    80.00 Ry     beta= 0.40
     Davidson diagonalization with overlap
     ethr =  1.00E-02,  avg # of iterations =  1.0

     negative rho (up, down):  9.062E-02 0.000E+00

     total cpu time spent up to now is      188.8 secs

     total energy              =    -878.41049433 Ry
     Harris-Foulkes estimate   =    -878.39388444 Ry
     estimated scf accuracy    <       3.58443327 Ry

     iteration # 41     ecut=    80.00 Ry     beta= 0.40
     Davidson diagonalization with overlap
     ethr =  1.00E-02,  avg # of iterations =  1.0

     negative rho (up, down):  9.048E-02 0.000E+00

     total cpu time spent up to now is      193.1 secs

     total energy              =    -878.40132510 Ry
     Harris-Foulkes estimate   =    -878.41520154 Ry
     estimated scf accuracy    <       4.52096212 Ry

     iteration # 42     ecut=    80.00 Ry     beta= 0.40
     Davidson diagonalization with overlap
     ethr =  1.00E-02,  avg # of iterations =  1.0

     negative rho (up, down):  8.540E-02 0.000E+00

     total cpu time spent up to now is      197.3 secs

     total energy              =    -877.88422401 Ry
     Harris-Foulkes estimate   =    -878.40164837 Ry
     estimated scf accuracy    <       4.97948174 Ry

     iteration # 43     ecut=    80.00 Ry     beta= 0.40
     Davidson diagonalization with overlap
     ethr =  1.00E-02,  avg # of iterations =  1.0

     negative rho (up, down):  9.323E-02 0.000E+00

     total cpu time spent up to now is      201.3 secs

     total energy              =    -878.27563313 Ry
     Harris-Foulkes estimate   =    -878.91771392 Ry
     estimated scf accuracy    <      18.59841648 Ry

     iteration # 44     ecut=    80.00 Ry     beta= 0.40
     Davidson diagonalization with overlap
     ethr =  1.00E-02,  avg # of iterations =  1.0

     negative rho (up, down):  1.108E-01 0.000E+00

     total cpu time spent up to now is      205.3 secs

     total energy              =    -877.42654562 Ry
     Harris-Foulkes estimate   =    -878.27667859 Ry
     estimated scf accuracy    <      18.30920933 Ry

     iteration # 45     ecut=    80.00 Ry     beta= 0.40
     Davidson diagonalization with overlap
     ethr =  1.00E-02,  avg # of iterations =  1.0

     negative rho (up, down):  1.080E-01 0.000E+00

     total cpu time spent up to now is      209.4 secs

     total energy              =    -878.28122142 Ry
     Harris-Foulkes estimate   =    -878.46531687 Ry
     estimated scf accuracy    <       6.22908992 Ry

     iteration # 46     ecut=    80.00 Ry     beta= 0.40
     Davidson diagonalization with overlap
     ethr =  1.00E-02,  avg # of iterations =  1.0

     negative rho (up, down):  1.126E-01 0.000E+00

     total cpu time spent up to now is      213.5 secs

     total energy              =    -879.30675540 Ry
     Harris-Foulkes estimate   =    -878.28137613 Ry
     estimated scf accuracy    <       6.01176420 Ry

     iteration # 47     ecut=    80.00 Ry     beta= 0.40
     Davidson diagonalization with overlap
     ethr =  1.00E-02,  avg # of iterations =  1.0

     negative rho (up, down):  1.104E-01 0.000E+00

     total cpu time spent up to now is      217.6 secs

     total energy              =    -879.94081141 Ry
     Harris-Foulkes estimate   =    -879.31002663 Ry
     estimated scf accuracy    <       7.20588771 Ry

     iteration # 48     ecut=    80.00 Ry     beta= 0.40
     Davidson diagonalization with overlap
     ethr =  1.00E-02,  avg # of iterations =  1.0

     negative rho (up, down):  1.052E-01 0.000E+00

     total cpu time spent up to now is      222.0 secs

     total energy              =    -880.53957012 Ry
     Harris-Foulkes estimate   =    -879.94267428 Ry
     estimated scf accuracy    <       7.92511910 Ry

     iteration # 49     ecut=    80.00 Ry     beta= 0.40
     Davidson diagonalization with overlap
     ethr =  1.00E-02,  avg # of iterations =  1.0

     negative rho (up, down):  1.025E-01 0.000E+00

     total cpu time spent up to now is      226.2 secs

     total energy              =    -879.58492595 Ry
     Harris-Foulkes estimate   =    -880.54044030 Ry
     estimated scf accuracy    <       8.57781083 Ry

     iteration # 50     ecut=    80.00 Ry     beta= 0.40
     Davidson diagonalization with overlap
     ethr =  1.00E-02,  avg # of iterations =  1.0

     negative rho (up, down):  9.992E-02 0.000E+00

     total cpu time spent up to now is      230.2 secs

     total energy              =    -879.61098211 Ry
     Harris-Foulkes estimate   =    -879.58623731 Ry
     estimated scf accuracy    <       7.49807261 Ry

     iteration # 51     ecut=    80.00 Ry     beta= 0.40
     Davidson diagonalization with overlap
     ethr =  1.00E-02,  avg # of iterations =  1.0

     negative rho (up, down):  7.757E-04 0.000E+00

     total cpu time spent up to now is      234.2 secs

     total energy              =    -878.20793795 Ry
     Harris-Foulkes estimate   =    -879.61108100 Ry
     estimated scf accuracy    <       7.51511881 Ry

     iteration # 52     ecut=    80.00 Ry     beta= 0.40
     Davidson diagonalization with overlap
     ethr =  1.00E-02,  avg # of iterations =  1.0

     negative rho (up, down):  3.880E-02 0.000E+00

     total cpu time spent up to now is      238.4 secs

     total energy              =    -880.86334135 Ry
     Harris-Foulkes estimate   =    -881.43918449 Ry
     estimated scf accuracy    <       9.57280932 Ry

     iteration # 53     ecut=    80.00 Ry     beta= 0.40
     Davidson diagonalization with overlap
     ethr =  1.00E-02,  avg # of iterations =  1.0

     negative rho (up, down):  4.523E-01 0.000E+00

     total cpu time spent up to now is      242.7 secs

     total energy              =    -874.35115692 Ry
     Harris-Foulkes estimate   =    -880.88290245 Ry
     estimated scf accuracy    <       8.55683019 Ry

     iteration # 54     ecut=    80.00 Ry     beta= 0.40
     Davidson diagonalization with overlap
     ethr =  1.00E-02,  avg # of iterations =  3.0

     negative rho (up, down):  1.627E-01 0.000E+00

     total cpu time spent up to now is      248.1 secs

     total energy              =    -887.98530202 Ry
     Harris-Foulkes estimate   =    -896.21749260 Ry
     estimated scf accuracy    <      53.88934984 Ry

     iteration # 55     ecut=    80.00 Ry     beta= 0.40
     Davidson diagonalization with overlap
     ethr =  1.00E-02,  avg # of iterations =  1.0

     negative rho (up, down):  4.629E-02 0.000E+00

     total cpu time spent up to now is      252.3 secs

     total energy              =    -874.22856427 Ry
     Harris-Foulkes estimate   =    -888.04798739 Ry
     estimated scf accuracy    <      43.37814059 Ry

     iteration # 56     ecut=    80.00 Ry     beta= 0.40
     Davidson diagonalization with overlap
     ethr =  1.00E-02,  avg # of iterations =  2.0

     negative rho (up, down):  9.712E-02 0.000E+00

     total cpu time spent up to now is      257.2 secs

     total energy              =    -877.68843191 Ry
     Harris-Foulkes estimate   =    -879.56279352 Ry
     estimated scf accuracy    <       7.04762663 Ry

     iteration # 57     ecut=    80.00 Ry     beta= 0.40
     Davidson diagonalization with overlap
     ethr =  1.00E-02,  avg # of iterations =  1.0

     negative rho (up, down):  7.470E-02 0.000E+00

     total cpu time spent up to now is      261.4 secs

     total energy              =    -877.10564593 Ry
     Harris-Foulkes estimate   =    -879.71037251 Ry
     estimated scf accuracy    <      19.59708439 Ry

     iteration # 58     ecut=    80.00 Ry     beta= 0.40
     Davidson diagonalization with overlap
     ethr =  1.00E-02,  avg # of iterations =  1.0

     negative rho (up, down):  8.067E-02 0.000E+00

     total cpu time spent up to now is      265.5 secs

     total energy              =    -878.46214307 Ry
     Harris-Foulkes estimate   =    -878.73449790 Ry
     estimated scf accuracy    <       5.93663844 Ry

     iteration # 59     ecut=    80.00 Ry     beta= 0.40
     Davidson diagonalization with overlap
     ethr =  1.00E-02,  avg # of iterations =  1.0

     negative rho (up, down):  8.651E-02 0.000E+00

     total cpu time spent up to now is      269.7 secs

     total energy              =    -878.36813872 Ry
     Harris-Foulkes estimate   =    -878.46245659 Ry
     estimated scf accuracy    <       5.60577610 Ry

     iteration # 60     ecut=    80.00 Ry     beta= 0.40
     Davidson diagonalization with overlap
     ethr =  1.00E-02,  avg # of iterations =  1.0

     negative rho (up, down):  7.385E-01 0.000E+00

     total cpu time spent up to now is      273.8 secs

     total energy              =    -875.80724243 Ry
     Harris-Foulkes estimate   =    -878.36829951 Ry
     estimated scf accuracy    <       5.47513944 Ry

     iteration # 61     ecut=    80.00 Ry     beta= 0.40
     Davidson diagonalization with overlap
     ethr =  1.00E-02,  avg # of iterations =  2.0

     negative rho (up, down):  1.312E-01 0.000E+00

     total cpu time spent up to now is      278.3 secs

     total energy              =    -876.88830182 Ry
     Harris-Foulkes estimate   =    -882.94380777 Ry
     estimated scf accuracy    <      15.05866312 Ry

     iteration # 62     ecut=    80.00 Ry     beta= 0.40
     Davidson diagonalization with overlap
     ethr =  1.00E-02,  avg # of iterations =  2.0

     negative rho (up, down):  1.068E-01 0.000E+00

     total cpu time spent up to now is      283.2 secs

     total energy              =    -878.62750272 Ry
     Harris-Foulkes estimate   =    -881.55374384 Ry
     estimated scf accuracy    <       9.80869076 Ry

     iteration # 63     ecut=    80.00 Ry     beta= 0.40
     Davidson diagonalization with overlap
     ethr =  1.00E-02,  avg # of iterations =  1.0

     negative rho (up, down):  9.055E-02 0.000E+00

     total cpu time spent up to now is      287.2 secs

     total energy              =    -878.01111029 Ry
     Harris-Foulkes estimate   =    -878.64384528 Ry
     estimated scf accuracy    <       6.47747160 Ry

     iteration # 64     ecut=    80.00 Ry     beta= 0.40
     Davidson diagonalization with overlap
     ethr =  1.00E-02,  avg # of iterations =  1.0

     negative rho (up, down):  1.065E-01 0.000E+00

     total cpu time spent up to now is      291.5 secs

     total energy              =    -878.19080659 Ry
     Harris-Foulkes estimate   =    -878.25197160 Ry
     estimated scf accuracy    <       5.27342993 Ry

     iteration # 65     ecut=    80.00 Ry     beta= 0.40
     Davidson diagonalization with overlap
     ethr =  1.00E-02,  avg # of iterations =  1.0

     negative rho (up, down):  1.057E-01 0.000E+00

     total cpu time spent up to now is      295.8 secs

     total energy              =    -878.28285255 Ry
     Harris-Foulkes estimate   =    -878.29068540 Ry
     estimated scf accuracy    <       6.04895489 Ry

     iteration # 66     ecut=    80.00 Ry     beta= 0.40
     Davidson diagonalization with overlap
     ethr =  1.00E-02,  avg # of iterations =  1.0

     negative rho (up, down):  1.959E-01 0.000E+00

     total cpu time spent up to now is      299.9 secs

     total energy              =    -876.29841710 Ry
     Harris-Foulkes estimate   =    -878.28308928 Ry
     estimated scf accuracy    <       6.18874596 Ry

     iteration # 67     ecut=    80.00 Ry     beta= 0.40
     Davidson diagonalization with overlap
     ethr =  1.00E-02,  avg # of iterations =  2.0

     negative rho (up, down):  9.543E-02 0.000E+00

     total cpu time spent up to now is      304.7 secs

     total energy              =    -880.21724643 Ry
     Harris-Foulkes estimate   =    -884.93970993 Ry
     estimated scf accuracy    <      39.43502152 Ry

     iteration # 68     ecut=    80.00 Ry     beta= 0.40
     Davidson diagonalization with overlap
     ethr =  1.00E-02,  avg # of iterations =  1.0

     negative rho (up, down):  1.049E-01 0.000E+00

     total cpu time spent up to now is      308.8 secs

     total energy              =    -878.65211447 Ry
     Harris-Foulkes estimate   =    -880.70491735 Ry
     estimated scf accuracy    <      20.94702063 Ry

     iteration # 69     ecut=    80.00 Ry     beta= 0.40
     Davidson diagonalization with overlap
     ethr =  1.00E-02,  avg # of iterations =  1.0

     negative rho (up, down):  1.114E-01 0.000E+00

     total cpu time spent up to now is      313.0 secs

     total energy              =    -878.43835511 Ry
     Harris-Foulkes estimate   =    -878.66293753 Ry
     estimated scf accuracy    <      18.34623416 Ry

     iteration # 70     ecut=    80.00 Ry     beta= 0.40
     Davidson diagonalization with overlap
     ethr =  1.00E-02,  avg # of iterations =  1.0

     negative rho (up, down):  1.068E-01 0.000E+00

     total cpu time spent up to now is      317.1 secs

     total energy              =    -878.25953893 Ry
     Harris-Foulkes estimate   =    -878.43900509 Ry
     estimated scf accuracy    <      18.06943119 Ry

     iteration # 71     ecut=    80.00 Ry     beta= 0.40
     Davidson diagonalization with overlap
     ethr =  1.00E-02,  avg # of iterations =  1.0

     negative rho (up, down):  1.069E-01 0.000E+00

     total cpu time spent up to now is      321.1 secs

     total energy              =    -878.21829816 Ry
     Harris-Foulkes estimate   =    -878.25988431 Ry
     estimated scf accuracy    <      17.89843710 Ry

     iteration # 72     ecut=    80.00 Ry     beta= 0.40
     Davidson diagonalization with overlap
     ethr =  1.00E-02,  avg # of iterations =  1.0

     negative rho (up, down):  1.092E-01 0.000E+00

     total cpu time spent up to now is      325.2 secs

     total energy              =    -877.88442077 Ry
     Harris-Foulkes estimate   =    -878.21799960 Ry
     estimated scf accuracy    <      18.76247441 Ry

     iteration # 73     ecut=    80.00 Ry     beta= 0.40
     Davidson diagonalization with overlap
     ethr =  1.00E-02,  avg # of iterations =  1.0

     negative rho (up, down):  1.220E-01 0.000E+00

     total cpu time spent up to now is      329.3 secs

     total energy              =    -878.85693499 Ry
     Harris-Foulkes estimate   =    -878.17937901 Ry
     estimated scf accuracy    <       6.11255127 Ry

     iteration # 74     ecut=    80.00 Ry     beta= 0.40
     Davidson diagonalization with overlap
     ethr =  1.00E-02,  avg # of iterations =  1.0

     negative rho (up, down):  1.373E-01 0.000E+00

     total cpu time spent up to now is      333.3 secs

     total energy              =    -880.06376182 Ry
     Harris-Foulkes estimate   =    -878.84491358 Ry
     estimated scf accuracy    <       6.68894995 Ry

     iteration # 75     ecut=    80.00 Ry     beta= 0.40
     Davidson diagonalization with overlap
     ethr =  1.00E-02,  avg # of iterations =  1.0

     negative rho (up, down):  1.389E-01 0.000E+00

     total cpu time spent up to now is      337.3 secs

     total energy              =    -878.86979904 Ry
     Harris-Foulkes estimate   =    -880.06774014 Ry
     estimated scf accuracy    <       8.11845778 Ry

     iteration # 76     ecut=    80.00 Ry     beta= 0.40
     Davidson diagonalization with overlap
     ethr =  1.00E-02,  avg # of iterations =  1.0

     negative rho (up, down):  1.222E-01 0.000E+00

     total cpu time spent up to now is      341.3 secs

     total energy              =    -878.68309601 Ry
     Harris-Foulkes estimate   =    -878.87295822 Ry
     estimated scf accuracy    <       6.79024361 Ry

     iteration # 77     ecut=    80.00 Ry     beta= 0.40
     Davidson diagonalization with overlap
     ethr =  1.00E-02,  avg # of iterations =  1.0

     negative rho (up, down):  3.583E-02 0.000E+00

     total cpu time spent up to now is      345.4 secs

     total energy              =    -884.83396285 Ry
     Harris-Foulkes estimate   =    -878.68375035 Ry
     estimated scf accuracy    <       6.52901348 Ry

     iteration # 78     ecut=    80.00 Ry     beta= 0.40
     Davidson diagonalization with overlap
     ethr =  1.00E-02,  avg # of iterations =  2.0

     negative rho (up, down):  9.258E-04 0.000E+00

     total cpu time spent up to now is      349.7 secs

     total energy              =    -898.42889856 Ry
     Harris-Foulkes estimate   =    -887.22994616 Ry
     estimated scf accuracy    <      32.95303524 Ry

     iteration # 79     ecut=    80.00 Ry     beta= 0.40
     Davidson diagonalization with overlap
     ethr =  1.00E-02,  avg # of iterations =  2.0

     negative rho (up, down):  7.875E-02 0.000E+00

     total cpu time spent up to now is      354.4 secs

     total energy              =    -866.93285443 Ry
     Harris-Foulkes estimate   =    -898.44767739 Ry
     estimated scf accuracy    <      45.26225282 Ry

     iteration # 80     ecut=    80.00 Ry     beta= 0.40
     Davidson diagonalization with overlap
     ethr =  1.00E-02,  avg # of iterations =  4.0

     negative rho (up, down):  6.019E-01 0.000E+00

     total cpu time spent up to now is      360.6 secs

     total energy              =    -847.67173397 Ry
     Harris-Foulkes estimate   =    -888.49166135 Ry
     estimated scf accuracy    <      43.65333199 Ry

     iteration # 81     ecut=    80.00 Ry     beta= 0.40
     Davidson diagonalization with overlap
     ethr =  1.00E-02,  avg # of iterations =  6.0

     negative rho (up, down):  5.742E-03 0.000E+00

     total cpu time spent up to now is      370.1 secs

     total energy              =    -871.54231457 Ry
     Harris-Foulkes estimate   =    -950.11101497 Ry
     estimated scf accuracy    <     104.39036241 Ry

     iteration # 82     ecut=    80.00 Ry     beta= 0.40
     Davidson diagonalization with overlap
     ethr =  1.00E-02,  avg # of iterations =  8.1

     negative rho (up, down):  6.478E-02 0.000E+00

     total cpu time spent up to now is      381.0 secs

     total energy              =    -877.54154484 Ry
     Harris-Foulkes estimate   =    -879.53810161 Ry
     estimated scf accuracy    <       7.10893219 Ry

     iteration # 83     ecut=    80.00 Ry     beta= 0.40
     Davidson diagonalization with overlap
     ethr =  1.00E-02,  avg # of iterations =  1.1

     negative rho (up, down):  6.767E-02 0.000E+00

     total cpu time spent up to now is      385.2 secs

     total energy              =    -875.48250954 Ry
     Harris-Foulkes estimate   =    -881.39396489 Ry
     estimated scf accuracy    <      21.70129327 Ry

     iteration # 84     ecut=    80.00 Ry     beta= 0.40
     Davidson diagonalization with overlap
     ethr =  1.00E-02,  avg # of iterations =  1.0

     negative rho (up, down):  9.537E-02 0.000E+00

     total cpu time spent up to now is      389.2 secs

     total energy              =    -878.02477427 Ry
     Harris-Foulkes estimate   =    -879.44624121 Ry
     estimated scf accuracy    <       6.74915651 Ry

     iteration # 85     ecut=    80.00 Ry     beta= 0.40
     Davidson diagonalization with overlap
     ethr =  1.00E-02,  avg # of iterations =  1.0

     negative rho (up, down):  1.028E-01 0.000E+00

     total cpu time spent up to now is      393.2 secs

     total energy              =    -876.28905422 Ry
     Harris-Foulkes estimate   =    -878.37733988 Ry
     estimated scf accuracy    <      17.88342158 Ry

     iteration # 86     ecut=    80.00 Ry     beta= 0.40
     Davidson diagonalization with overlap
     ethr =  1.00E-02,  avg # of iterations =  1.0

     negative rho (up, down):  9.317E-02 0.000E+00

     total cpu time spent up to now is      397.2 secs

     total energy              =    -878.86145611 Ry
     Harris-Foulkes estimate   =    -879.03317401 Ry
     estimated scf accuracy    <       6.82406951 Ry

     iteration # 87     ecut=    80.00 Ry     beta= 0.40
     Davidson diagonalization with overlap
     ethr =  1.00E-02,  avg # of iterations =  1.0

     negative rho (up, down):  9.755E-02 0.000E+00

     total cpu time spent up to now is      401.2 secs

     total energy              =    -879.94909243 Ry
     Harris-Foulkes estimate   =    -878.86195780 Ry
     estimated scf accuracy    <       6.64543355 Ry

     iteration # 88     ecut=    80.00 Ry     beta= 0.40
     Davidson diagonalization with overlap
     ethr =  1.00E-02,  avg # of iterations =  1.0

     negative rho (up, down):  1.010E-01 0.000E+00

     total cpu time spent up to now is      405.1 secs

     total energy              =    -881.50588323 Ry
     Harris-Foulkes estimate   =    -879.95097236 Ry
     estimated scf accuracy    <       7.86801871 Ry

     iteration # 89     ecut=    80.00 Ry     beta= 0.40
     Davidson diagonalization with overlap
     ethr =  1.00E-02,  avg # of iterations =  1.0

     negative rho (up, down):  9.035E-02 0.000E+00

     total cpu time spent up to now is      409.0 secs

     total energy              =    -880.10478455 Ry
     Harris-Foulkes estimate   =    -881.51201167 Ry
     estimated scf accuracy    <       9.67410233 Ry

     iteration # 90     ecut=    80.00 Ry     beta= 0.40
     Davidson diagonalization with overlap
     ethr =  1.00E-02,  avg # of iterations =  1.0

     negative rho (up, down):  8.757E-02 0.000E+00

     total cpu time spent up to now is      413.1 secs

     total energy              =    -879.12412801 Ry
     Harris-Foulkes estimate   =    -880.10869704 Ry
     estimated scf accuracy    <       8.06264244 Ry

     iteration # 91     ecut=    80.00 Ry     beta= 0.40
     Davidson diagonalization with overlap
     ethr =  1.00E-02,  avg # of iterations =  1.0

     negative rho (up, down):  7.802E-02 0.000E+00

     total cpu time spent up to now is      417.3 secs

     total energy              =    -879.22097585 Ry
     Harris-Foulkes estimate   =    -879.12636302 Ry
     estimated scf accuracy    <       7.17636164 Ry

     iteration # 92     ecut=    80.00 Ry     beta= 0.40
     Davidson diagonalization with overlap
     ethr =  1.00E-02,  avg # of iterations =  1.0

     negative rho (up, down):  1.043E-01 0.000E+00

     total cpu time spent up to now is      421.6 secs

     total energy              =    -878.52349219 Ry
     Harris-Foulkes estimate   =    -879.28214382 Ry
     estimated scf accuracy    <       6.83400908 Ry

     iteration # 93     ecut=    80.00 Ry     beta= 0.40
     Davidson diagonalization with overlap
     ethr =  1.00E-02,  avg # of iterations =  1.0

     negative rho (up, down):  1.021E-01 0.000E+00

     total cpu time spent up to now is      425.6 secs

     total energy              =    -878.85388728 Ry
     Harris-Foulkes estimate   =    -878.75683479 Ry
     estimated scf accuracy    <       6.55357301 Ry

     iteration # 94     ecut=    80.00 Ry     beta= 0.40
     Davidson diagonalization with overlap
     ethr =  1.00E-02,  avg # of iterations =  1.0

     negative rho (up, down):  2.723E-01 0.000E+00

     total cpu time spent up to now is      429.6 secs

     total energy              =    -875.22980065 Ry
     Harris-Foulkes estimate   =    -878.85428352 Ry
     estimated scf accuracy    <       6.66087234 Ry

     iteration # 95     ecut=    80.00 Ry     beta= 0.40
     Davidson diagonalization with overlap
     ethr =  1.00E-02,  avg # of iterations =  3.0

     negative rho (up, down):  1.023E-01 0.000E+00

     total cpu time spent up to now is      435.0 secs

     total energy              =    -882.65453136 Ry
     Harris-Foulkes estimate   =    -896.41978523 Ry
     estimated scf accuracy    <      54.09784039 Ry

     iteration # 96     ecut=    80.00 Ry     beta= 0.40
     Davidson diagonalization with overlap
     ethr =  1.00E-02,  avg # of iterations =  2.0

     negative rho (up, down):  8.237E-02 0.000E+00

     total cpu time spent up to now is      439.8 secs

     total energy              =    -879.72034013 Ry
     Harris-Foulkes estimate   =    -882.84191018 Ry
     estimated scf accuracy    <      36.63678611 Ry

     iteration # 97     ecut=    80.00 Ry     beta= 0.40
     Davidson diagonalization with overlap
     ethr =  1.00E-02,  avg # of iterations =  1.0

     negative rho (up, down):  9.685E-02 0.000E+00

     total cpu time spent up to now is      443.8 secs

     total energy              =    -878.92143244 Ry
     Harris-Foulkes estimate   =    -880.29686917 Ry
     estimated scf accuracy    <      20.46132263 Ry

     iteration # 98     ecut=    80.00 Ry     beta= 0.40
     Davidson diagonalization with overlap
     ethr =  1.00E-02,  avg # of iterations =  1.0

     negative rho (up, down):  1.031E-01 0.000E+00

     total cpu time spent up to now is      447.9 secs

     total energy              =    -877.79801333 Ry
     Harris-Foulkes estimate   =    -878.92842435 Ry
     estimated scf accuracy    <      18.70011674 Ry

     iteration # 99     ecut=    80.00 Ry     beta= 0.40
     Davidson diagonalization with overlap
     ethr =  1.00E-02,  avg # of iterations =  1.0

     negative rho (up, down):  1.025E-01 0.000E+00

     total cpu time spent up to now is      451.9 secs

     total energy              =    -878.11119951 Ry
     Harris-Foulkes estimate   =    -878.19672200 Ry
     estimated scf accuracy    <       6.17004299 Ry

     iteration #100     ecut=    80.00 Ry     beta= 0.40
     Davidson diagonalization with overlap
     ethr =  1.00E-02,  avg # of iterations =  1.0

     negative rho (up, down):  9.722E-02 0.000E+00

     total cpu time spent up to now is      456.0 secs

     total energy              =    -878.14746024 Ry
     Harris-Foulkes estimate   =    -878.11255044 Ry
     estimated scf accuracy    <       5.10038214 Ry

     iteration #101     ecut=    80.00 Ry     beta= 0.40
     Davidson diagonalization with overlap
     ethr =  1.00E-02,  avg # of iterations =  1.0

     negative rho (up, down):  1.029E-01 0.000E+00

     total cpu time spent up to now is      460.3 secs

     total energy              =    -878.12994484 Ry
     Harris-Foulkes estimate   =    -878.18619470 Ry
     estimated scf accuracy    <       5.48184670 Ry

     iteration #102     ecut=    80.00 Ry     beta= 0.40
     Davidson diagonalization with overlap
     ethr =  1.00E-02,  avg # of iterations =  1.0

     negative rho (up, down):  1.053E-01 0.000E+00

     total cpu time spent up to now is      464.5 secs

     total energy              =    -878.76848627 Ry
     Harris-Foulkes estimate   =    -878.17414271 Ry
     estimated scf accuracy    <       5.80428276 Ry

     iteration #103     ecut=    80.00 Ry     beta= 0.40
     Davidson diagonalization with overlap
     ethr =  1.00E-02,  avg # of iterations =  1.0

     negative rho (up, down):  1.160E-01 0.000E+00

     total cpu time spent up to now is      468.6 secs

     total energy              =    -880.08987669 Ry
     Harris-Foulkes estimate   =    -878.77298031 Ry
     estimated scf accuracy    <       6.56297491 Ry

     iteration #104     ecut=    80.00 Ry     beta= 0.40
     Davidson diagonalization with overlap
     ethr =  1.00E-02,  avg # of iterations =  1.0

     negative rho (up, down):  1.041E-01 0.000E+00

     total cpu time spent up to now is      472.6 secs

     total energy              =    -879.07836256 Ry
     Harris-Foulkes estimate   =    -880.09459544 Ry
     estimated scf accuracy    <       8.11193997 Ry

     iteration #105     ecut=    80.00 Ry     beta= 0.40
     Davidson diagonalization with overlap
     ethr =  1.00E-02,  avg # of iterations =  1.0

     negative rho (up, down):  1.019E-01 0.000E+00

     total cpu time spent up to now is      476.7 secs

     total energy              =    -879.23712714 Ry
     Harris-Foulkes estimate   =    -879.08094634 Ry
     estimated scf accuracy    <       6.93360062 Ry

     iteration #106     ecut=    80.00 Ry     beta= 0.40
     Davidson diagonalization with overlap
     ethr =  1.00E-02,  avg # of iterations =  1.0

     negative rho (up, down):  9.862E-02 0.000E+00

     total cpu time spent up to now is      480.9 secs

     total energy              =    -878.71046693 Ry
     Harris-Foulkes estimate   =    -879.23731728 Ry
     estimated scf accuracy    <       7.09705035 Ry

     iteration #107     ecut=    80.00 Ry     beta= 0.40
     Davidson diagonalization with overlap
     ethr =  1.00E-02,  avg # of iterations =  1.0

     negative rho (up, down):  9.507E-02 0.000E+00

     total cpu time spent up to now is      485.1 secs

     total energy              =    -878.58869040 Ry
     Harris-Foulkes estimate   =    -878.71109762 Ry
     estimated scf accuracy    <       6.49009610 Ry

     iteration #108     ecut=    80.00 Ry     beta= 0.40
     Davidson diagonalization with overlap
     ethr =  1.00E-02,  avg # of iterations =  1.0

     negative rho (up, down):  1.091E-01 0.000E+00

     total cpu time spent up to now is      489.2 secs

     total energy              =    -878.81307235 Ry
     Harris-Foulkes estimate   =    -878.58811181 Ry
     estimated scf accuracy    <       6.68430899 Ry

     iteration #109     ecut=    80.00 Ry     beta= 0.40
     Davidson diagonalization with overlap
     ethr =  1.00E-02,  avg # of iterations =  1.0

     negative rho (up, down):  2.690E-01 0.000E+00

     total cpu time spent up to now is      493.5 secs

     total energy              =    -875.43347131 Ry
     Harris-Foulkes estimate   =    -878.80656330 Ry
     estimated scf accuracy    <       6.60082221 Ry

     iteration #110     ecut=    80.00 Ry     beta= 0.40
     Davidson diagonalization with overlap
     ethr =  1.00E-02,  avg # of iterations =  3.0

     negative rho (up, down):  1.743E-01 0.000E+00

     total cpu time spent up to now is      498.6 secs

     total energy              =    -882.21111066 Ry
     Harris-Foulkes estimate   =    -893.69055958 Ry
     estimated scf accuracy    <      50.62639718 Ry

     iteration #111     ecut=    80.00 Ry     beta= 0.40
     Davidson diagonalization with overlap
     ethr =  1.00E-02,  avg # of iterations =  2.0

     negative rho (up, down):  2.814E-01 0.000E+00

     total cpu time spent up to now is      503.4 secs

     total energy              =    -876.48182692 Ry
     Harris-Foulkes estimate   =    -882.35425161 Ry
     estimated scf accuracy    <      22.39682494 Ry

     iteration #112     ecut=    80.00 Ry     beta= 0.40
     Davidson diagonalization with overlap
     ethr =  1.00E-02,  avg # of iterations =  2.0

     negative rho (up, down):  1.111E-01 0.000E+00

     total cpu time spent up to now is      507.9 secs

     total energy              =    -878.68547912 Ry
     Harris-Foulkes estimate   =    -879.83748020 Ry
     estimated scf accuracy    <       8.08863039 Ry

     iteration #113     ecut=    80.00 Ry     beta= 0.40
     Davidson diagonalization with overlap
     ethr =  1.00E-02,  avg # of iterations =  1.0

     negative rho (up, down):  6.603E-02 0.000E+00

     total cpu time spent up to now is      512.0 secs

     total energy              =    -877.02651469 Ry
     Harris-Foulkes estimate   =    -878.69380010 Ry
     estimated scf accuracy    <       6.59048974 Ry

     iteration #114     ecut=    80.00 Ry     beta= 0.40
     Davidson diagonalization with overlap
     ethr =  1.00E-02,  avg # of iterations =  1.0

     negative rho (up, down):  6.352E-02 0.000E+00

     total cpu time spent up to now is      516.2 secs

     total energy              =    -877.92184468 Ry
     Harris-Foulkes estimate   =    -879.82848806 Ry
     estimated scf accuracy    <      19.71546606 Ry

     iteration #115     ecut=    80.00 Ry     beta= 0.40
     Davidson diagonalization with overlap
     ethr =  1.00E-02,  avg # of iterations =  1.0

     negative rho (up, down):  7.250E-02 0.000E+00

     total cpu time spent up to now is      520.3 secs

     total energy              =    -878.06659401 Ry
     Harris-Foulkes estimate   =    -878.40596581 Ry
     estimated scf accuracy    <       5.51994041 Ry

     iteration #116     ecut=    80.00 Ry     beta= 0.40
     Davidson diagonalization with overlap
     ethr =  1.00E-02,  avg # of iterations =  1.0

     negative rho (up, down):  8.908E-02 0.000E+00

     total cpu time spent up to now is      524.4 secs

     total energy              =    -878.51678285 Ry
     Harris-Foulkes estimate   =    -878.81649081 Ry
     estimated scf accuracy    <      18.47129998 Ry

     iteration #117     ecut=    80.00 Ry     beta= 0.40
     Davidson diagonalization with overlap
     ethr =  1.00E-02,  avg # of iterations =  1.0

     negative rho (up, down):  9.702E-02 0.000E+00

     total cpu time spent up to now is      528.4 secs

     total energy              =    -877.76858830 Ry
     Harris-Foulkes estimate   =    -878.51699506 Ry
     estimated scf accuracy    <      18.11570530 Ry

     iteration #118     ecut=    80.00 Ry     beta= 0.40
     Davidson diagonalization with overlap
     ethr =  1.00E-02,  avg # of iterations =  1.0

     negative rho (up, down):  1.166E-01 0.000E+00

     total cpu time spent up to now is      532.7 secs

     total energy              =    -878.10950237 Ry
     Harris-Foulkes estimate   =    -878.19780569 Ry
     estimated scf accuracy    <       3.41076026 Ry

     iteration #119     ecut=    80.00 Ry     beta= 0.40
     Davidson diagonalization with overlap
     ethr =  1.00E-02,  avg # of iterations =  1.0

     negative rho (up, down):  9.391E-02 0.000E+00

     total cpu time spent up to now is      536.9 secs

     total energy              =    -877.80885610 Ry
     Harris-Foulkes estimate   =    -878.22988227 Ry
     estimated scf accuracy    <       6.65459909 Ry

     iteration #120     ecut=    80.00 Ry     beta= 0.40
     Davidson diagonalization with overlap
     ethr =  1.00E-02,  avg # of iterations =  1.0

     negative rho (up, down):  1.019E-01 0.000E+00

     total cpu time spent up to now is      541.1 secs

     total energy              =    -878.20494345 Ry
     Harris-Foulkes estimate   =    -878.46462884 Ry
     estimated scf accuracy    <      18.03813977 Ry

     iteration #121     ecut=    80.00 Ry     beta= 0.40
     Davidson diagonalization with overlap
     ethr =  1.00E-02,  avg # of iterations =  1.0

     negative rho (up, down):  1.129E-01 0.000E+00

     total cpu time spent up to now is      545.3 secs

     total energy              =    -877.86982798 Ry
     Harris-Foulkes estimate   =    -878.20382877 Ry
     estimated scf accuracy    <      19.38514358 Ry

     iteration #122     ecut=    80.00 Ry     beta= 0.40
     Davidson diagonalization with overlap
     ethr =  1.00E-02,  avg # of iterations =  1.0

     negative rho (up, down):  1.198E-01 0.000E+00

     total cpu time spent up to now is      549.5 secs

     total energy              =    -878.37519969 Ry
     Harris-Foulkes estimate   =    -878.24342382 Ry
     estimated scf accuracy    <       6.65060403 Ry

     iteration #123     ecut=    80.00 Ry     beta= 0.40
     Davidson diagonalization with overlap
     ethr =  1.00E-02,  avg # of iterations =  1.0

     negative rho (up, down):  1.277E-01 0.000E+00

     total cpu time spent up to now is      553.8 secs

     total energy              =    -878.65532851 Ry
     Harris-Foulkes estimate   =    -878.37020319 Ry
     estimated scf accuracy    <       6.13078802 Ry

     iteration #124     ecut=    80.00 Ry     beta= 0.40
     Davidson diagonalization with overlap
     ethr =  1.00E-02,  avg # of iterations =  1.0

     negative rho (up, down):  1.296E-01 0.000E+00

     total cpu time spent up to now is      558.0 secs

     total energy              =    -878.69521904 Ry
     Harris-Foulkes estimate   =    -878.65588175 Ry
     estimated scf accuracy    <       6.47311248 Ry

     iteration #125     ecut=    80.00 Ry     beta= 0.40
     Davidson diagonalization with overlap
     ethr =  1.00E-02,  avg # of iterations =  1.0

     negative rho (up, down):  1.294E-01 0.000E+00

     total cpu time spent up to now is      562.1 secs

     total energy              =    -878.90894502 Ry
     Harris-Foulkes estimate   =    -878.69529595 Ry
     estimated scf accuracy    <       6.52338802 Ry

     iteration #126     ecut=    80.00 Ry     beta= 0.40
     Davidson diagonalization with overlap
     ethr =  1.00E-02,  avg # of iterations =  1.0

     negative rho (up, down):  1.193E-01 0.000E+00

     total cpu time spent up to now is      566.1 secs

     total energy              =    -878.80914593 Ry
     Harris-Foulkes estimate   =    -878.90914226 Ry
     estimated scf accuracy    <       6.76534747 Ry

     iteration #127     ecut=    80.00 Ry     beta= 0.40
     Davidson diagonalization with overlap
     ethr =  1.00E-02,  avg # of iterations =  1.0

     negative rho (up, down):  1.461E-01 0.000E+00

     total cpu time spent up to now is      570.2 secs

     total energy              =    -879.26463017 Ry
     Harris-Foulkes estimate   =    -878.80923702 Ry
     estimated scf accuracy    <       6.64036670 Ry

     iteration #128     ecut=    80.00 Ry     beta= 0.40
     Davidson diagonalization with overlap
     ethr =  1.00E-02,  avg # of iterations =  1.0

     negative rho (up, down):  1.429E-01 0.000E+00

     total cpu time spent up to now is      574.5 secs

     total energy              =    -879.58313408 Ry
     Harris-Foulkes estimate   =    -879.26553103 Ry
     estimated scf accuracy    <       7.21898252 Ry

     iteration #129     ecut=    80.00 Ry     beta= 0.40
     Davidson diagonalization with overlap
     ethr =  1.00E-02,  avg # of iterations =  1.0

     negative rho (up, down):  1.593E-01 0.000E+00

     total cpu time spent up to now is      578.7 secs

     total energy              =    -878.00298619 Ry
     Harris-Foulkes estimate   =    -879.58357838 Ry
     estimated scf accuracy    <       7.57590026 Ry

     iteration #130     ecut=    80.00 Ry     beta= 0.40
     Davidson diagonalization with overlap
     ethr =  1.00E-02,  avg # of iterations =  1.0

     negative rho (up, down):  9.350E-02 0.000E+00

     total cpu time spent up to now is      582.8 secs

     total energy              =    -878.93657864 Ry
     Harris-Foulkes estimate   =    -878.93417094 Ry
     estimated scf accuracy    <      15.75148594 Ry

     iteration #131     ecut=    80.00 Ry     beta= 0.40
     Davidson diagonalization with overlap
     ethr =  1.00E-02,  avg # of iterations =  1.0

     negative rho (up, down):  1.434E-03 0.000E+00

     total cpu time spent up to now is      586.8 secs

     total energy              =    -873.61760346 Ry
     Harris-Foulkes estimate   =    -879.03313297 Ry
     estimated scf accuracy    <      18.73312340 Ry

     iteration #132     ecut=    80.00 Ry     beta= 0.40
     Davidson diagonalization with overlap
     ethr =  1.00E-02,  avg # of iterations =  2.0

     negative rho (up, down):  1.298E-02 0.000E+00

     total cpu time spent up to now is      591.4 secs

     total energy              =    -878.83820455 Ry
     Harris-Foulkes estimate   =    -883.35184133 Ry
     estimated scf accuracy    <      20.62498236 Ry

     iteration #133     ecut=    80.00 Ry     beta= 0.40
     Davidson diagonalization with overlap
     ethr =  1.00E-02,  avg # of iterations =  1.0

     negative rho (up, down):  6.367E-02 0.000E+00

     total cpu time spent up to now is      595.5 secs

     total energy              =    -879.01737840 Ry
     Harris-Foulkes estimate   =    -879.95069379 Ry
     estimated scf accuracy    <       7.61160742 Ry

     iteration #134     ecut=    80.00 Ry     beta= 0.40
     Davidson diagonalization with overlap
     ethr =  1.00E-02,  avg # of iterations =  1.0

     negative rho (up, down):  1.013E-01 0.000E+00

     total cpu time spent up to now is      599.7 secs

     total energy              =    -878.38631736 Ry
     Harris-Foulkes estimate   =    -879.02549275 Ry
     estimated scf accuracy    <       6.34677800 Ry

     iteration #135     ecut=    80.00 Ry     beta= 0.40
     Davidson diagonalization with overlap
     ethr =  1.00E-02,  avg # of iterations =  1.0

     negative rho (up, down):  9.861E-02 0.000E+00

     total cpu time spent up to now is      603.9 secs

     total energy              =    -878.42347277 Ry
     Harris-Foulkes estimate   =    -878.53483059 Ry
     estimated scf accuracy    <       6.26533592 Ry

     iteration #136     ecut=    80.00 Ry     beta= 0.40
     Davidson diagonalization with overlap
     ethr =  1.00E-02,  avg # of iterations =  1.0

     negative rho (up, down):  1.009E-01 0.000E+00

     total cpu time spent up to now is      608.0 secs

     total energy              =    -878.53040622 Ry
     Harris-Foulkes estimate   =    -878.42440533 Ry
     estimated scf accuracy    <       6.43867165 Ry

     iteration #137     ecut=    80.00 Ry     beta= 0.40
     Davidson diagonalization with overlap
     ethr =  1.00E-02,  avg # of iterations =  1.0

     negative rho (up, down):  1.114E-01 0.000E+00

     total cpu time spent up to now is      612.2 secs

     total energy              =    -878.49607033 Ry
     Harris-Foulkes estimate   =    -878.53000346 Ry
     estimated scf accuracy    <       6.27865325 Ry

     iteration #138     ecut=    80.00 Ry     beta= 0.40
     Davidson diagonalization with overlap
     ethr =  1.00E-02,  avg # of iterations =  1.0

     negative rho (up, down):  7.762E-02 0.000E+00

     total cpu time spent up to now is      616.2 secs

     total energy              =    -878.50310604 Ry
     Harris-Foulkes estimate   =    -878.49642783 Ry
     estimated scf accuracy    <       6.24958928 Ry

     iteration #139     ecut=    80.00 Ry     beta= 0.40
     Davidson diagonalization with overlap
     ethr =  1.00E-02,  avg # of iterations =  1.0

     negative rho (up, down):  7.538E-02 0.000E+00

     total cpu time spent up to now is      620.5 secs

     total energy              =    -878.80072945 Ry
     Harris-Foulkes estimate   =    -878.70308435 Ry
     estimated scf accuracy    <       5.85327103 Ry

     iteration #140     ecut=    80.00 Ry     beta= 0.40
     Davidson diagonalization with overlap
     ethr =  1.00E-02,  avg # of iterations =  1.0

     negative rho (up, down):  7.146E-01 0.000E+00

     total cpu time spent up to now is      624.6 secs

     total energy              =    -874.06716541 Ry
     Harris-Foulkes estimate   =    -878.80087205 Ry
     estimated scf accuracy    <       5.97394050 Ry

     iteration #141     ecut=    80.00 Ry     beta= 0.40
     Davidson diagonalization with overlap
     ethr =  1.00E-02,  avg # of iterations =  3.0

     negative rho (up, down):  4.158E-01 0.000E+00

     total cpu time spent up to now is      630.0 secs

     total energy              =    -888.96456990 Ry
     Harris-Foulkes estimate   =    -896.69310896 Ry
     estimated scf accuracy    <      56.40860523 Ry

     iteration #142     ecut=    80.00 Ry     beta= 0.40
     Davidson diagonalization with overlap
     ethr =  1.00E-02,  avg # of iterations =  1.0

     negative rho (up, down):  8.234E-02 0.000E+00

     total cpu time spent up to now is      634.2 secs

     total energy              =    -877.78032966 Ry
     Harris-Foulkes estimate   =    -889.35244076 Ry
     estimated scf accuracy    <      45.49456204 Ry

     iteration #143     ecut=    80.00 Ry     beta= 0.40
     Davidson diagonalization with overlap
     ethr =  1.00E-02,  avg # of iterations =  2.0

     negative rho (up, down):  8.709E-02 0.000E+00

     total cpu time spent up to now is      639.0 secs

     total energy              =    -877.63689796 Ry
     Harris-Foulkes estimate   =    -878.92390928 Ry
     estimated scf accuracy    <      18.66455287 Ry

     iteration #144     ecut=    80.00 Ry     beta= 0.40
     Davidson diagonalization with overlap
     ethr =  1.00E-02,  avg # of iterations =  1.0

     negative rho (up, down):  8.664E-02 0.000E+00

     total cpu time spent up to now is      643.1 secs

     total energy              =    -878.34515215 Ry
     Harris-Foulkes estimate   =    -878.32996587 Ry
     estimated scf accuracy    <       5.36137257 Ry

     iteration #145     ecut=    80.00 Ry     beta= 0.40
     Davidson diagonalization with overlap
     ethr =  1.00E-02,  avg # of iterations =  1.0

     negative rho (up, down):  8.478E-02 0.000E+00

     total cpu time spent up to now is      647.3 secs

     total energy              =    -878.41469791 Ry
     Harris-Foulkes estimate   =    -878.34635110 Ry
     estimated scf accuracy    <       5.39312223 Ry

     iteration #146     ecut=    80.00 Ry     beta= 0.40
     Davidson diagonalization with overlap
     ethr =  1.00E-02,  avg # of iterations =  1.0

     negative rho (up, down):  1.021E-01 0.000E+00

     total cpu time spent up to now is      651.6 secs

     total energy              =    -878.00140959 Ry
     Harris-Foulkes estimate   =    -878.41531123 Ry
     estimated scf accuracy    <       5.48754975 Ry

     iteration #147     ecut=    80.00 Ry     beta= 0.40
     Davidson diagonalization with overlap
     ethr =  1.00E-02,  avg # of iterations =  1.0

     negative rho (up, down):  8.589E-02 0.000E+00

     total cpu time spent up to now is      655.7 secs

     total energy              =    -878.64915933 Ry
     Harris-Foulkes estimate   =    -878.26204117 Ry
     estimated scf accuracy    <      17.98571995 Ry

     iteration #148     ecut=    80.00 Ry     beta= 0.40
     Davidson diagonalization with overlap
     ethr =  1.00E-02,  avg # of iterations =  1.0

     negative rho (up, down):  1.075E-02 0.000E+00

     total cpu time spent up to now is      659.9 secs

     total energy              =    -871.72213284 Ry
     Harris-Foulkes estimate   =    -878.64898644 Ry
     estimated scf accuracy    <      18.26975000 Ry

     iteration #149     ecut=    80.00 Ry     beta= 0.40
     Davidson diagonalization with overlap
     ethr =  1.00E-02,  avg # of iterations =  2.0

     negative rho (up, down):  3.052E-02 0.000E+00

     total cpu time spent up to now is      664.2 secs

     total energy              =    -891.48344364 Ry
     Harris-Foulkes estimate   =    -884.13435178 Ry
     estimated scf accuracy    <      21.26280081 Ry

     iteration #150     ecut=    80.00 Ry     beta= 0.40
     Davidson diagonalization with overlap
     ethr =  1.00E-02,  avg # of iterations =  1.0

     negative rho (up, down):  8.869E-01 0.000E+00

     total cpu time spent up to now is      668.2 secs

     total energy              =    -871.22903864 Ry
     Harris-Foulkes estimate   =    -891.55125079 Ry
     estimated scf accuracy    <      30.64891600 Ry

     iteration #151     ecut=    80.00 Ry     beta= 0.40
     Davidson diagonalization with overlap
     ethr =  1.00E-02,  avg # of iterations =  3.0

     negative rho (up, down):  4.974E-01 0.000E+00

     total cpu time spent up to now is      674.1 secs

     total energy              =    -881.77795020 Ry
     Harris-Foulkes estimate   =    -884.68182538 Ry
     estimated scf accuracy    <      17.42971210 Ry

     iteration #152     ecut=    80.00 Ry     beta= 0.40
     Davidson diagonalization with overlap
     ethr =  1.00E-02,  avg # of iterations =  1.0

     negative rho (up, down):  9.998E-02 0.000E+00

     total cpu time spent up to now is      678.0 secs

     total energy              =    -877.95134455 Ry
     Harris-Foulkes estimate   =    -881.79533848 Ry
     estimated scf accuracy    <      13.25534001 Ry

     iteration #153     ecut=    80.00 Ry     beta= 0.40
     Davidson diagonalization with overlap
     ethr =  1.00E-02,  avg # of iterations =  2.0

     negative rho (up, down):  1.023E-01 0.000E+00

     total cpu time spent up to now is      682.5 secs

     total energy              =    -878.11948996 Ry
     Harris-Foulkes estimate   =    -878.10926042 Ry
     estimated scf accuracy    <       3.79488519 Ry

     iteration #154     ecut=    80.00 Ry     beta= 0.40
     Davidson diagonalization with overlap
     ethr =  1.00E-02,  avg # of iterations =  1.0

     negative rho (up, down):  9.169E-02 0.000E+00

     total cpu time spent up to now is      686.5 secs

     total energy              =    -878.09076055 Ry
     Harris-Foulkes estimate   =    -878.13656702 Ry
     estimated scf accuracy    <      13.01776357 Ry

     iteration #155     ecut=    80.00 Ry     beta= 0.40
     Davidson diagonalization with overlap
     ethr =  1.00E-02,  avg # of iterations =  1.0

     negative rho (up, down):  9.866E-02 0.000E+00

     total cpu time spent up to now is      690.5 secs

     total energy              =    -878.04718399 Ry
     Harris-Foulkes estimate   =    -878.17471738 Ry
     estimated scf accuracy    <       3.92262898 Ry

     iteration #156     ecut=    80.00 Ry     beta= 0.40
     Davidson diagonalization with overlap
     ethr =  1.00E-02,  avg # of iterations =  1.0

     negative rho (up, down):  1.236E-01 0.000E+00

     total cpu time spent up to now is      694.6 secs

     total energy              =    -879.07373777 Ry
     Harris-Foulkes estimate   =    -878.40062834 Ry
     estimated scf accuracy    <      17.96133962 Ry

     iteration #157     ecut=    80.00 Ry     beta= 0.40
     Davidson diagonalization with overlap
     ethr =  1.00E-02,  avg # of iterations =  1.0

     negative rho (up, down):  1.260E-01 0.000E+00

     total cpu time spent up to now is      698.7 secs

     total energy              =    -879.03135208 Ry
     Harris-Foulkes estimate   =    -879.07594016 Ry
     estimated scf accuracy    <      18.87798855 Ry

     iteration #158     ecut=    80.00 Ry     beta= 0.40
     Davidson diagonalization with overlap
     ethr =  1.00E-02,  avg # of iterations =  1.0

     negative rho (up, down):  1.194E-01 0.000E+00

     total cpu time spent up to now is      702.8 secs

     total energy              =    -878.83202085 Ry
     Harris-Foulkes estimate   =    -879.03140298 Ry
     estimated scf accuracy    <      18.82540072 Ry

     iteration #159     ecut=    80.00 Ry     beta= 0.40
     Davidson diagonalization with overlap
     ethr =  1.00E-02,  avg # of iterations =  1.0

     negative rho (up, down):  1.150E-01 0.000E+00

     total cpu time spent up to now is      706.9 secs

     total energy              =    -878.95472903 Ry
     Harris-Foulkes estimate   =    -878.83211130 Ry
     estimated scf accuracy    <      18.56900825 Ry

     iteration #160     ecut=    80.00 Ry     beta= 0.40
     Davidson diagonalization with overlap
     ethr =  1.00E-02,  avg # of iterations =  1.0

     negative rho (up, down):  1.266E-01 0.000E+00

     total cpu time spent up to now is      711.0 secs

     total energy              =    -879.57486668 Ry
     Harris-Foulkes estimate   =    -878.95475990 Ry
     estimated scf accuracy    <      18.71380076 Ry

     iteration #161     ecut=    80.00 Ry     beta= 0.40
     Davidson diagonalization with overlap
     ethr =  1.00E-02,  avg # of iterations =  1.0

     negative rho (up, down):  4.905E-01 0.000E+00

     total cpu time spent up to now is      715.1 secs

     total energy              =    -874.58189384 Ry
     Harris-Foulkes estimate   =    -879.57581139 Ry
     estimated scf accuracy    <      19.49154455 Ry

     iteration #162     ecut=    80.00 Ry     beta= 0.40
     Davidson diagonalization with overlap
     ethr =  1.00E-02,  avg # of iterations =  2.0

     negative rho (up, down):  1.420E-01 0.000E+00

     total cpu time spent up to now is      719.6 secs

     total energy              =    -878.16241012 Ry
     Harris-Foulkes estimate   =    -881.97451743 Ry
     estimated scf accuracy    <      10.80734210 Ry

     iteration #163     ecut=    80.00 Ry     beta= 0.40
     Davidson diagonalization with overlap
     ethr =  1.00E-02,  avg # of iterations =  2.0

     negative rho (up, down):  1.254E-01 0.000E+00

     total cpu time spent up to now is      724.1 secs

     total energy              =    -878.35765435 Ry
     Harris-Foulkes estimate   =    -878.43546396 Ry
     estimated scf accuracy    <       8.54017628 Ry

     iteration #164     ecut=    80.00 Ry     beta= 0.40
     Davidson diagonalization with overlap
     ethr =  1.00E-02,  avg # of iterations =  1.0

     negative rho (up, down):  3.297E-01 0.000E+00

     total cpu time spent up to now is      728.2 secs

     total energy              =    -879.12000030 Ry
     Harris-Foulkes estimate   =    -878.35828276 Ry
     estimated scf accuracy    <       8.51184974 Ry

     iteration #165     ecut=    80.00 Ry     beta= 0.40
     Davidson diagonalization with overlap
     ethr =  1.00E-02,  avg # of iterations =  1.0

     negative rho (up, down):  1.912E-01 0.000E+00

     total cpu time spent up to now is      732.3 secs

     total energy              =    -878.97331603 Ry
     Harris-Foulkes estimate   =    -879.93685176 Ry
     estimated scf accuracy    <       8.20692084 Ry

     iteration #166     ecut=    80.00 Ry     beta= 0.40
     Davidson diagonalization with overlap
     ethr =  1.00E-02,  avg # of iterations =  1.0

     negative rho (up, down):  1.569E-01 0.000E+00

     total cpu time spent up to now is      736.4 secs

     total energy              =    -878.82316651 Ry
     Harris-Foulkes estimate   =    -878.97847875 Ry
     estimated scf accuracy    <       6.94368263 Ry

     iteration #167     ecut=    80.00 Ry     beta= 0.40
     Davidson diagonalization with overlap
     ethr =  1.00E-02,  avg # of iterations =  1.0

     negative rho (up, down):  1.349E-01 0.000E+00

     total cpu time spent up to now is      740.5 secs

     total energy              =    -878.53417645 Ry
     Harris-Foulkes estimate   =    -878.82436478 Ry
     estimated scf accuracy    <       6.73268726 Ry

     iteration #168     ecut=    80.00 Ry     beta= 0.40
     Davidson diagonalization with overlap
     ethr =  1.00E-02,  avg # of iterations =  1.0

     negative rho (up, down):  1.351E-01 0.000E+00

     total cpu time spent up to now is      744.6 secs

     total energy              =    -878.54328280 Ry
     Harris-Foulkes estimate   =    -878.53534775 Ry
     estimated scf accuracy    <       6.36762975 Ry

     iteration #169     ecut=    80.00 Ry     beta= 0.40
     Davidson diagonalization with overlap
     ethr =  1.00E-02,  avg # of iterations =  1.0

     negative rho (up, down):  1.136E-01 0.000E+00

     total cpu time spent up to now is      748.6 secs

     total energy              =    -878.09725192 Ry
     Harris-Foulkes estimate   =    -878.54360854 Ry
     estimated scf accuracy    <       6.37051346 Ry

     iteration #170     ecut=    80.00 Ry     beta= 0.40
     Davidson diagonalization with overlap
     ethr =  1.00E-02,  avg # of iterations =  1.0

     negative rho (up, down):  1.962E-03 0.000E+00

     total cpu time spent up to now is      752.7 secs

     total energy              =    -876.72231522 Ry
     Harris-Foulkes estimate   =    -878.10684625 Ry
     estimated scf accuracy    <       3.84331669 Ry

     iteration #171     ecut=    80.00 Ry     beta= 0.40
     Davidson diagonalization with overlap
     ethr =  1.00E-02,  avg # of iterations =  2.0

     negative rho (up, down):  1.773E-02 0.000E+00

     total cpu time spent up to now is      757.5 secs

     total energy              =    -880.80306394 Ry
     Harris-Foulkes estimate   =    -887.09582118 Ry
     estimated scf accuracy    <      41.47517944 Ry

     iteration #172     ecut=    80.00 Ry     beta= 0.40
     Davidson diagonalization with overlap
     ethr =  1.00E-02,  avg # of iterations =  1.0

     negative rho (up, down):  2.074E-01 0.000E+00

     total cpu time spent up to now is      761.8 secs

     total energy              =    -874.75209810 Ry
     Harris-Foulkes estimate   =    -881.21290315 Ry
     estimated scf accuracy    <      21.35339903 Ry

     iteration #173     ecut=    80.00 Ry     beta= 0.40
     Davidson diagonalization with overlap
     ethr =  1.00E-02,  avg # of iterations =  2.0

     negative rho (up, down):  1.801E-01 0.000E+00

     total cpu time spent up to now is      766.3 secs

     total energy              =    -880.98243359 Ry
     Harris-Foulkes estimate   =    -880.50158446 Ry
     estimated scf accuracy    <       8.67140118 Ry

     iteration #174     ecut=    80.00 Ry     beta= 0.40
     Davidson diagonalization with overlap
     ethr =  1.00E-02,  avg # of iterations =  1.0

     negative rho (up, down):  1.092E-01 0.000E+00

     total cpu time spent up to now is      770.4 secs

     total energy              =    -880.47820134 Ry
     Harris-Foulkes estimate   =    -880.99137996 Ry
     estimated scf accuracy    <       9.20873935 Ry

     iteration #175     ecut=    80.00 Ry     beta= 0.40
     Davidson diagonalization with overlap
     ethr =  1.00E-02,  avg # of iterations =  1.0

     negative rho (up, down):  1.651E-01 0.000E+00

     total cpu time spent up to now is      774.5 secs

     total energy              =    -880.70563906 Ry
     Harris-Foulkes estimate   =    -880.48252692 Ry
     estimated scf accuracy    <       8.53212376 Ry

     iteration #176     ecut=    80.00 Ry     beta= 0.40
     Davidson diagonalization with overlap
     ethr =  1.00E-02,  avg # of iterations =  1.0

     negative rho (up, down):  2.149E-01 0.000E+00

     total cpu time spent up to now is      778.7 secs

     total energy              =    -880.73899059 Ry
     Harris-Foulkes estimate   =    -880.70800642 Ry
     estimated scf accuracy    <       8.92523940 Ry

     iteration #177     ecut=    80.00 Ry     beta= 0.40
     Davidson diagonalization with overlap
     ethr =  1.00E-02,  avg # of iterations =  1.0

     negative rho (up, down):  1.428E-01 0.000E+00

[...]
     Davidson diagonalization with overlap
     ethr =  4.86E-04,  avg # of iterations =  3.2

     negative rho (up, down):  2.102E-01 0.000E+00

     total cpu time spent up to now is     1721.9 secs

     total energy              =    -876.53689121 Ry
     Harris-Foulkes estimate   =    -886.89319577 Ry
     estimated scf accuracy    <      16.90714686 Ry

     iteration #365     ecut=    80.00 Ry     beta= 0.40
     Davidson diagonalization with overlap
     ethr =  4.86E-04,  avg # of iterations =  3.0

     negative rho (up, down):  4.302E-01 0.000E+00

     total cpu time spent up to now is     1728.4 secs

     total energy              =    -881.19108899 Ry
     Harris-Foulkes estimate   =    -880.65625393 Ry
     estimated scf accuracy    <      20.91247040 Ry

     iteration #366     ecut=    80.00 Ry     beta= 0.40
     Davidson diagonalization with overlap
     ethr =  4.86E-04,  avg # of iterations =  1.0

     negative rho (up, down):  2.827E-01 0.000E+00

     total cpu time spent up to now is     1732.5 secs

     total energy              =    -880.11191600 Ry
     Harris-Foulkes estimate   =    -881.19202678 Ry
     estimated scf accuracy    <      21.68578308 Ry

     iteration #367     ecut=    80.00 Ry     beta= 0.40
     Davidson diagonalization with overlap
     ethr =  4.86E-04,  avg # of iterations =  1.0

     negative rho (up, down):  6.710E-01 0.000E+00

     total cpu time spent up to now is     1736.5 secs

     total energy              =    -881.37243358 Ry
     Harris-Foulkes estimate   =    -880.11374691 Ry
     estimated scf accuracy    <      20.30958249 Ry

     iteration #368     ecut=    80.00 Ry     beta= 0.40
     Davidson diagonalization with overlap
     ethr =  4.86E-04,  avg # of iterations =  2.1

     negative rho (up, down):  5.381E-01 0.000E+00

     total cpu time spent up to now is     1741.2 secs

     total energy              =    -880.70290076 Ry
     Harris-Foulkes estimate   =    -881.39384460 Ry
     estimated scf accuracy    <      21.70584285 Ry

     iteration #369     ecut=    80.00 Ry     beta= 0.40
     Davidson diagonalization with overlap
     ethr =  4.86E-04,  avg # of iterations =  1.0

     negative rho (up, down):  1.243E+00 0.000E+00

     total cpu time spent up to now is     1745.3 secs

     total energy              =    -883.17560582 Ry
     Harris-Foulkes estimate   =    -880.70382796 Ry
     estimated scf accuracy    <      20.76467284 Ry

     iteration #370     ecut=    80.00 Ry     beta= 0.40
     Davidson diagonalization with overlap
     ethr =  4.86E-04,  avg # of iterations =  2.7

     negative rho (up, down):  9.892E-01 0.000E+00

     total cpu time spent up to now is     1751.4 secs

     total energy              =    -883.25578992 Ry
     Harris-Foulkes estimate   =    -883.39394332 Ry
     estimated scf accuracy    <      22.95253608 Ry

     iteration #371     ecut=    80.00 Ry     beta= 0.40
     Davidson diagonalization with overlap
     ethr =  4.86E-04,  avg # of iterations =  3.7

     negative rho (up, down):  6.674E-01 0.000E+00

     total cpu time spent up to now is     1756.7 secs

     total energy              =    -882.32482834 Ry
     Harris-Foulkes estimate   =    -883.61998063 Ry
     estimated scf accuracy    <      18.32413315 Ry

     iteration #372     ecut=    80.00 Ry     beta= 0.40
     Davidson diagonalization with overlap
     ethr =  4.86E-04,  avg # of iterations =  2.0

     negative rho (up, down):  3.379E-01 0.000E+00

     total cpu time spent up to now is     1761.4 secs

     total energy              =    -880.59759427 Ry
     Harris-Foulkes estimate   =    -882.32807189 Ry
     estimated scf accuracy    <      16.46234214 Ry

     iteration #373     ecut=    80.00 Ry     beta= 0.40
     Davidson diagonalization with overlap
     ethr =  4.86E-04,  avg # of iterations =  2.0

     negative rho (up, down):  2.226E-02 0.000E+00

     total cpu time spent up to now is     1766.2 secs

     total energy              =    -885.53277197 Ry
     Harris-Foulkes estimate   =    -880.77139237 Ry
     estimated scf accuracy    <      21.10695740 Ry

     iteration #374     ecut=    80.00 Ry     beta= 0.40
     Davidson diagonalization with overlap
     c_bands:  1 eigenvalues not converged
     c_bands:  1 eigenvalues not converged
     c_bands:  1 eigenvalues not converged
     c_bands:  1 eigenvalues not converged
     c_bands:  1 eigenvalues not converged
     c_bands:  1 eigenvalues not converged
     c_bands:  1 eigenvalues not converged
     c_bands:  1 eigenvalues not converged
     c_bands:  1 eigenvalues not converged
     c_bands:  1 eigenvalues not converged
     c_bands:  1 eigenvalues not converged
     c_bands:  1 eigenvalues not converged
     c_bands:  1 eigenvalues not converged
     c_bands:  1 eigenvalues not converged
     c_bands:  1 eigenvalues not converged
     c_bands:  1 eigenvalues not converged
     c_bands:  1 eigenvalues not converged
     c_bands:  1 eigenvalues not converged
     c_bands:  1 eigenvalues not converged
     c_bands:  1 eigenvalues not converged
     c_bands:  1 eigenvalues not converged
     c_bands:  1 eigenvalues not converged
     c_bands:  1 eigenvalues not converged
     c_bands:  1 eigenvalues not converged
     c_bands:  1 eigenvalues not converged
     c_bands:  1 eigenvalues not converged
     c_bands:  1 eigenvalues not converged
     c_bands:  1 eigenvalues not converged
     c_bands:  1 eigenvalues not converged
     c_bands:  1 eigenvalues not converged
     c_bands:  1 eigenvalues not converged
     c_bands:  1 eigenvalues not converged
     c_bands:  1 eigenvalues not converged
     ethr =  4.86E-04,  avg # of iterations = 10.5

     negative rho (up, down):  8.082E-04 0.000E+00

     total cpu time spent up to now is     1776.0 secs

     total energy              =    -881.96605292 Ry
     Harris-Foulkes estimate   =    -899.51182353 Ry
     estimated scf accuracy    <      42.22601370 Ry

     iteration #375     ecut=    80.00 Ry     beta= 0.40
     Davidson diagonalization with overlap
     ethr =  4.86E-04,  avg # of iterations =  3.0

     negative rho (up, down):  9.357E-02 0.000E+00

     total cpu time spent up to now is     1782.5 secs

     total energy              =    -877.76080572 Ry
     Harris-Foulkes estimate   =    -883.54189475 Ry
     estimated scf accuracy    <      12.59632856 Ry

     iteration #376     ecut=    80.00 Ry     beta= 0.40
     Davidson diagonalization with overlap
     ethr =  4.86E-04,  avg # of iterations =  2.0

     negative rho (up, down):  1.109E-01 0.000E+00

     total cpu time spent up to now is     1788.4 secs

     total energy              =    -879.99881981 Ry
     Harris-Foulkes estimate   =    -879.69329768 Ry
     estimated scf accuracy    <      19.56381543 Ry

     iteration #377     ecut=    80.00 Ry     beta= 0.40
     Davidson diagonalization with overlap
     ethr =  4.86E-04,  avg # of iterations =  1.0

     negative rho (up, down):  1.899E-01 0.000E+00

     total cpu time spent up to now is     1792.5 secs

     total energy              =    -881.09777111 Ry
     Harris-Foulkes estimate   =    -879.99910347 Ry
     estimated scf accuracy    <      19.96759482 Ry

     iteration #378     ecut=    80.00 Ry     beta= 0.40
     Davidson diagonalization with overlap
     ethr =  4.86E-04,  avg # of iterations =  1.0

     negative rho (up, down):  1.759E-01 0.000E+00

     total cpu time spent up to now is     1796.6 secs

     total energy              =    -881.25569975 Ry
     Harris-Foulkes estimate   =    -881.10023356 Ry
     estimated scf accuracy    <      21.43790752 Ry

     iteration #379     ecut=    80.00 Ry     beta= 0.40
     Davidson diagonalization with overlap
     ethr =  4.86E-04,  avg # of iterations =  1.1

     negative rho (up, down):  1.210E-01 0.000E+00

     total cpu time spent up to now is     1800.6 secs

     total energy              =    -881.46524620 Ry
     Harris-Foulkes estimate   =    -881.25589989 Ry
     estimated scf accuracy    <      21.60886398 Ry

     iteration #380     ecut=    80.00 Ry     beta= 0.40
     Davidson diagonalization with overlap
     ethr =  4.86E-04,  avg # of iterations =  1.0

     negative rho (up, down):  1.774E-01 0.000E+00

     total cpu time spent up to now is     1804.7 secs

     total energy              =    -880.33152274 Ry
     Harris-Foulkes estimate   =    -881.46537774 Ry
     estimated scf accuracy    <      21.79818279 Ry

     iteration #381     ecut=    80.00 Ry     beta= 0.40
     Davidson diagonalization with overlap
     ethr =  4.86E-04,  avg # of iterations =  1.7

     negative rho (up, down):  1.209E+00 0.000E+00

     total cpu time spent up to now is     1809.0 secs

     total energy              =    -883.98193717 Ry
     Harris-Foulkes estimate   =    -880.33218122 Ry
     estimated scf accuracy    <      20.51626090 Ry

     iteration #382     ecut=    80.00 Ry     beta= 0.40
     Davidson diagonalization with overlap
     ethr =  4.86E-04,  avg # of iterations =  6.6

     negative rho (up, down):  1.284E+00 0.000E+00

     total cpu time spent up to now is     1817.4 secs

     total energy              =    -885.89664106 Ry
     Harris-Foulkes estimate   =    -885.75039279 Ry
     estimated scf accuracy    <      36.52728545 Ry

     iteration #383     ecut=    80.00 Ry     beta= 0.40
     Davidson diagonalization with overlap
     ethr =  4.86E-04,  avg # of iterations =  1.0

     negative rho (up, down):  1.293E+00 0.000E+00

     total cpu time spent up to now is     1821.5 secs

     total energy              =    -886.02124399 Ry
     Harris-Foulkes estimate   =    -885.89706636 Ry
     estimated scf accuracy    <      37.25438832 Ry

     iteration #384     ecut=    80.00 Ry     beta= 0.40
     Davidson diagonalization with overlap
     ethr =  4.86E-04,  avg # of iterations =  1.0

     negative rho (up, down):  1.409E+01 0.000E+00

     total cpu time spent up to now is     1825.5 secs

     total energy              =   -1132.96022101 Ry
     Harris-Foulkes estimate   =    -886.02130703 Ry
     estimated scf accuracy    <      37.44588703 Ry

     iteration #385     ecut=    80.00 Ry     beta= 0.40
     Davidson diagonalization with overlap
     c_bands:  1 eigenvalues not converged
     c_bands:  1 eigenvalues not converged
     c_bands:  1 eigenvalues not converged
     c_bands:  1 eigenvalues not converged
     c_bands:  1 eigenvalues not converged
     ethr =  4.86E-04,  avg # of iterations = 17.2

     negative rho (up, down):  1.254E+00 0.000E+00

     total cpu time spent up to now is     1843.9 secs

     total energy              =    -923.05191773 Ry
     Harris-Foulkes estimate   =   -1337.27116510 Ry
     estimated scf accuracy    <     540.26659827 Ry

     iteration #386     ecut=    80.00 Ry     beta= 0.40
     Davidson diagonalization with overlap
     ethr =  4.86E-04,  avg # of iterations =  8.5

     negative rho (up, down):  1.073E+00 0.000E+00

     total cpu time spent up to now is     1856.7 secs

     total energy              =    -932.78723547 Ry
     Harris-Foulkes estimate   =    -936.18575908 Ry
     estimated scf accuracy    <      77.11809145 Ry

     iteration #387     ecut=    80.00 Ry     beta= 0.40
     Davidson diagonalization with overlap
     ethr =  4.86E-04,  avg # of iterations =  2.0

     negative rho (up, down):  2.241E-01 0.000E+00

     total cpu time spent up to now is     1861.8 secs

     total energy              =    -897.13643478 Ry
     Harris-Foulkes estimate   =    -932.79427881 Ry
     estimated scf accuracy    <      73.89425215 Ry

     iteration #388     ecut=    80.00 Ry     beta= 0.40
     Davidson diagonalization with overlap
     ethr =  4.86E-04,  avg # of iterations =  4.0

     negative rho (up, down):  1.381E-01 0.000E+00

     total cpu time spent up to now is     1869.8 secs

     total energy              =    -892.32028746 Ry
     Harris-Foulkes estimate   =    -897.41702932 Ry
     estimated scf accuracy    <      35.66420155 Ry

     iteration #389     ecut=    80.00 Ry     beta= 0.40
     Davidson diagonalization with overlap
     ethr =  4.86E-04,  avg # of iterations =  2.0

     negative rho (up, down):  1.262E-01 0.000E+00

     total cpu time spent up to now is     1874.6 secs

     total energy              =    -887.32397337 Ry
     Harris-Foulkes estimate   =    -892.32585182 Ry
     estimated scf accuracy    <      29.79881956 Ry

     iteration #390     ecut=    80.00 Ry     beta= 0.40
     Davidson diagonalization with overlap
     ethr =  4.86E-04,  avg # of iterations =  2.0

     negative rho (up, down):  1.841E-01 0.000E+00

     total cpu time spent up to now is     1879.8 secs

     total energy              =    -877.75634668 Ry
     Harris-Foulkes estimate   =    -887.33422972 Ry
     estimated scf accuracy    <      23.39905326 Ry

     iteration #391     ecut=    80.00 Ry     beta= 0.40
     Davidson diagonalization with overlap
     ethr =  4.86E-04,  avg # of iterations =  4.6

     negative rho (up, down):  1.457E-02 0.000E+00

     total cpu time spent up to now is     1888.8 secs

     total energy              =    -880.37291112 Ry
     Harris-Foulkes estimate   =    -882.80885856 Ry
     estimated scf accuracy    <      21.38964503 Ry

     iteration #392     ecut=    80.00 Ry     beta= 0.40
     Davidson diagonalization with overlap
     ethr =  4.86E-04,  avg # of iterations =  4.8

     negative rho (up, down):  9.267E-01 0.000E+00

     total cpu time spent up to now is     1896.0 secs

     total energy              =    -875.98959228 Ry
     Harris-Foulkes estimate   =    -881.82482746 Ry
     estimated scf accuracy    <      10.09781569 Ry

     iteration #393     ecut=    80.00 Ry     beta= 0.40
     Davidson diagonalization with overlap
     ethr =  4.86E-04,  avg # of iterations =  4.0

     negative rho (up, down):  5.338E-01 0.000E+00

     total cpu time spent up to now is     1903.4 secs

     total energy              =    -880.43465545 Ry
     Harris-Foulkes estimate   =    -882.78247705 Ry
     estimated scf accuracy    <      15.30551011 Ry

     iteration #394     ecut=    80.00 Ry     beta= 0.40
     Davidson diagonalization with overlap
     ethr =  4.86E-04,  avg # of iterations =  2.0

     negative rho (up, down):  5.748E-01 0.000E+00

     total cpu time spent up to now is     1908.2 secs

     total energy              =    -880.69091520 Ry
     Harris-Foulkes estimate   =    -880.44643963 Ry
     estimated scf accuracy    <      11.72186760 Ry

     iteration #395     ecut=    80.00 Ry     beta= 0.40
     Davidson diagonalization with overlap
     ethr =  4.86E-04,  avg # of iterations =  1.0

     negative rho (up, down):  1.090E-01 0.000E+00

     total cpu time spent up to now is     1912.2 secs

     total energy              =    -877.23629579 Ry
     Harris-Foulkes estimate   =    -880.69118950 Ry
     estimated scf accuracy    <      12.07937691 Ry

     iteration #396     ecut=    80.00 Ry     beta= 0.40
     Davidson diagonalization with overlap
     ethr =  4.86E-04,  avg # of iterations =  3.9

     negative rho (up, down):  1.691E-01 0.000E+00

     total cpu time spent up to now is     1918.1 secs

     total energy              =    -877.88788583 Ry
     Harris-Foulkes estimate   =    -878.59221053 Ry
     estimated scf accuracy    <       5.80476842 Ry

     iteration #397     ecut=    80.00 Ry     beta= 0.40
     Davidson diagonalization with overlap
     ethr =  4.86E-04,  avg # of iterations =  2.0

     negative rho (up, down):  8.456E-02 0.000E+00

     total cpu time spent up to now is     1922.4 secs

     total energy              =    -876.05435195 Ry
     Harris-Foulkes estimate   =    -878.37493725 Ry
     estimated scf accuracy    <      17.93594584 Ry

     iteration #398     ecut=    80.00 Ry     beta= 0.40
     Davidson diagonalization with overlap
     ethr =  4.86E-04,  avg # of iterations =  2.0

     negative rho (up, down):  8.213E-02 0.000E+00

     total cpu time spent up to now is     1927.0 secs

     total energy              =    -879.10983565 Ry
     Harris-Foulkes estimate   =    -879.06473054 Ry
     estimated scf accuracy    <       6.35328883 Ry

     iteration #399     ecut=    80.00 Ry     beta= 0.40
     Davidson diagonalization with overlap
     ethr =  4.86E-04,  avg # of iterations =  1.0

     negative rho (up, down):  9.477E-02 0.000E+00

     total cpu time spent up to now is     1931.2 secs

     total energy              =    -879.00197233 Ry
     Harris-Foulkes estimate   =    -879.11001167 Ry
     estimated scf accuracy    <       6.33312340 Ry

     iteration #400     ecut=    80.00 Ry     beta= 0.40
     Davidson diagonalization with overlap
     ethr =  4.86E-04,  avg # of iterations =  1.0

     negative rho (up, down):  1.103E-01 0.000E+00

     total cpu time spent up to now is     1935.3 secs

     total energy              =    -878.98674147 Ry
     Harris-Foulkes estimate   =    -879.00225589 Ry
     estimated scf accuracy    <       5.10614104 Ry

     End of self-consistent calculation

     convergence NOT achieved after 400 iterations: stopping

     init_run     :      1.92s CPU      3.33s WALL (       1 calls)
     electrons    :   1208.33s CPU   1929.34s WALL (       1 calls)

     Called by init_run:
     wfcinit      :      1.44s CPU      2.40s WALL (       1 calls)
     potinit      :      0.12s CPU      0.22s WALL (       1 calls)
     hinit0       :      0.30s CPU      0.58s WALL (       1 calls)

     Called by electrons:
     c_bands      :    964.67s CPU   1520.48s WALL (     400 calls)
     sum_band     :    193.91s CPU    307.82s WALL (     400 calls)
     v_of_rho     :      6.17s CPU     10.31s WALL (     401 calls)
     newd         :     17.56s CPU     24.18s WALL (     401 calls)
     PAW_pot      :     23.38s CPU     61.69s WALL (     401 calls)
     mix_rho      :      2.21s CPU      3.61s WALL (     400 calls)

     Called by c_bands:
     init_us_2    :     32.12s CPU     41.41s WALL (   88110 calls)
     cegterg      :    896.18s CPU   1413.16s WALL (   44000 calls)

     Called by sum_band:
     sum_band:bec :      0.75s CPU      1.04s WALL (   44000 calls)
     addusdens    :     14.59s CPU     17.10s WALL (     400 calls)

     Called by *egterg:
     h_psi        :    687.83s CPU   1093.48s WALL (  127775 calls)
     s_psi        :     35.73s CPU     45.56s WALL (  127775 calls)
     g_psi        :      1.66s CPU      2.08s WALL (   83665 calls)
     cdiaghg      :     17.65s CPU     23.99s WALL (  127665 calls)

     Called by h_psi:
     h_psi:pot    :    683.06s CPU   1087.27s WALL (  127775 calls)
     h_psi:calbec :     83.06s CPU    146.22s WALL (  127775 calls)
     vloc_psi     :    560.80s CPU    889.83s WALL (  127775 calls)
     add_vuspsi   :     38.64s CPU     50.58s WALL (  127775 calls)

     General routines
     calbec       :    115.78s CPU    200.99s WALL (  171775 calls)
     fft          :      3.61s CPU      8.96s WALL (    4413 calls)
     ffts         :      0.18s CPU      0.28s WALL (     400 calls)
     fftw         :    617.35s CPU   1003.65s WALL ( 2278316 calls)
     davcio       :      0.00s CPU      0.01s WALL (     128 calls)

     Parallel routines
     fft_scatt_xy :     57.36s CPU     75.47s WALL ( 2283129 calls)
     fft_scatt_yz :    338.13s CPU    642.59s WALL ( 2283129 calls)

     PWSCF        : 20m12.15s CPU    32m15.29s WALL


   This run was terminated on:   1:19:49  24Oct2018            

=------------------------------------------------------------------------------=
   JOB DONE.
=------------------------------------------------------------------------------=
-------------------------------------------------------
Primary job  terminated normally, but 1 process returned
a non-zero exit code.. Per user-direction, the job has been aborted.
-------------------------------------------------------
