
     Program PWSCF v.6.3MaX starts on 23Oct2018 at 13:18: 7 

     This program is part of the open-source Quantum ESPRESSO suite
     for quantum simulation of materials; please cite
         "P. Giannozzi et al., J. Phys.:Condens. Matter 21 395502 (2009);
         "P. Giannozzi et al., J. Phys.:Condens. Matter 29 465901 (2017);
          URL http://www.quantum-espresso.org", 
     in publications or presentations arising from this work. More details at
     http://www.quantum-espresso.org/quote

     Parallel version (MPI), running on     8 processors

     MPI processes distributed on     1 nodes
     R & G space division:  proc/nbgrp/npool/nimage =       8
     Waiting for input...
     Reading input from standard input
Warning: card &CELL ignored
Warning: card                CELL_DYNAMICS = 'BFGS' , ignored
Warning: card / ignored

     Current dimensions of program PWSCF are:
     Max number of different atomic species (ntypx) = 10
     Max number of k-points (npk) =  40000
     Max angular momentum in pseudopotentials (lmaxx) =  3
               file N.pbe-n-kjpaw_psl.1.0.0.UPF: wavefunction(s)  2S renormalized
               file Na.pbe-spnl-kjpaw_psl.1.0.0.UPF: wavefunction(s)  2P renormalized

     Subspace diagonalization in iterative solution of the eigenvalue problem:
     a serial algorithm will be used


     Parallelization info
     --------------------
     sticks:   dense  smooth     PW     G-vecs:    dense   smooth      PW
     Min         216     216     63                 5976     5976     953
     Max         217     217     64                 5980     5980     955
     Sum        1735    1735    511                47831    47831    7631



     bravais-lattice index     =            2
     lattice parameter (alat)  =      14.6200  a.u.
     unit-cell volume          =     781.2358 (a.u.)^3
     number of atoms/cell      =            3
     number of atomic types    =            3
     number of electrons       =         9.00
     number of Kohn-Sham states=            9
     kinetic-energy cutoff     =      59.0000  Ry
     charge density cutoff     =     236.0000  Ry
     convergence threshold     =      1.0E-09
     mixing beta               =       0.4000
     number of iterations used =            8  plain     mixing
     Exchange-correlation      = SLA PW PBX PBC ( 1  4  3  4 0 0)

     celldm(1)=  14.620000  celldm(2)=   0.000000  celldm(3)=   0.000000
     celldm(4)=   0.000000  celldm(5)=   0.000000  celldm(6)=   0.000000

     crystal axes: (cart. coord. in units of alat)
               a(1) = (  -0.500000   0.000000   0.500000 )  
               a(2) = (   0.000000   0.500000   0.500000 )  
               a(3) = (  -0.500000   0.500000   0.000000 )  

     reciprocal axes: (cart. coord. in units 2 pi/alat)
               b(1) = ( -1.000000 -1.000000  1.000000 )  
               b(2) = (  1.000000  1.000000  1.000000 )  
               b(3) = ( -1.000000  1.000000 -1.000000 )  


     PseudoPot. # 1 for N  read from file:
     ./../ps/N.pbe-n-kjpaw_psl.1.0.0.UPF
     MD5 check sum: 200139db3989ad6e773ddd42f12fc3a8
     Pseudo is Projector augmented-wave + core cor, Zval =  5.0
     Generated using "atomic" code by A. Dal Corso v.6.3
     Shape of augmentation charge: PSQ
     Using radial grid of 1085 points,  4 beta functions with: 
                l(1) =   0
                l(2) =   0
                l(3) =   1
                l(4) =   1
     Q(r) pseudized with 0 coefficients 


     PseudoPot. # 2 for Na read from file:
     ./../ps/Na.pbe-spnl-kjpaw_psl.1.0.0.UPF
     MD5 check sum: 09e782c158f17eb2240230c4112357ee
     Pseudo is Projector augmented-wave + core cor, Zval =  9.0
     Generated using "atomic" code by A. Dal Corso v.6.3
     Shape of augmentation charge: PSQ
     Using radial grid of 1121 points,  4 beta functions with: 
                l(1) =   0
                l(2) =   0
                l(3) =   1
                l(4) =   1
     Q(r) pseudized with 0 coefficients 


     PseudoPot. # 3 for Cs read from file:
     ./../ps/Cs.pbe-spnl-kjpaw_psl.1.0.0.UPF
     MD5 check sum: f98336d4a4407e24c1ab1e3bc36275e8
     Pseudo is Projector augmented-wave + core cor, Zval = -5.0
     Generated using "atomic" code by A. Dal Corso v.6.2.2
     Shape of augmentation charge: PSQ
     Using radial grid of 1251 points,  6 beta functions with: 
                l(1) =   0
                l(2) =   0
                l(3) =   1
                l(4) =   1
                l(5) =   2
                l(6) =   2
     Q(r) pseudized with 0 coefficients 


     atomic species   valence    mass     pseudopotential
        N              5.00    14.00670     N ( 1.00)
        Na             9.00    22.98977     Na( 1.00)
        Cs            -5.00   132.90545     Cs( 1.00)

     24 Sym. Ops. (no inversion) found



   Cartesian axes

     site n.     atom                  positions (alat units)
         1           N   tau(   1) = (   0.0000000   0.0000000   0.0000000  )
         2           Na  tau(   2) = (  -0.2500000   0.2500000   0.2500000  )
         3           Cs  tau(   3) = (  -0.7500000   0.7500000   0.7500000  )

     number of k points=   110  Methfessel-Paxton smearing, width (Ry)=  0.0200

     Number of k-points >= 100: set verbosity='high' to print them.

     Dense  grid:    47831 G-vectors     FFT dimensions: (  54,  54,  54)

     Estimated max dynamical RAM per process >      42.97 MB

     Estimated total dynamical RAM >     343.74 MB

     Check: negative/imaginary core charge=   -0.000007    0.000000

     Initial potential from superposition of free atoms

     starting charge   22.95298, renormalised to    9.00000
     Starting wfcs are   14 randomized atomic wfcs
     Checking if some PAW data can be deallocated... 

     total cpu time spent up to now is        4.5 secs

     Self-consistent Calculation

     iteration #  1     ecut=    59.00 Ry     beta= 0.40
     Davidson diagonalization with overlap
     ethr =  1.00E-02,  avg # of iterations = 12.3

     total cpu time spent up to now is       14.9 secs

     total energy              =    -717.51696904 Ry
     Harris-Foulkes estimate   =    -745.43180311 Ry
     estimated scf accuracy    <      48.45639609 Ry

     iteration #  2     ecut=    59.00 Ry     beta= 0.40
     Davidson diagonalization with overlap
     ethr =  1.00E-02,  avg # of iterations =  3.0

     total cpu time spent up to now is       20.1 secs

     total energy              =    -709.70245612 Ry
     Harris-Foulkes estimate   =    -719.41874917 Ry
     estimated scf accuracy    <      11.22321884 Ry

     iteration #  3     ecut=    59.00 Ry     beta= 0.40
     Davidson diagonalization with overlap
     ethr =  1.00E-02,  avg # of iterations =  9.8

     negative rho (up, down):  9.261E-02 0.000E+00

     total cpu time spent up to now is       29.7 secs

     total energy              =    -712.56521591 Ry
     Harris-Foulkes estimate   =    -713.19201630 Ry
     estimated scf accuracy    <       1.12738338 Ry

     iteration #  4     ecut=    59.00 Ry     beta= 0.40
     Davidson diagonalization with overlap
     ethr =  1.00E-02,  avg # of iterations =  3.0

     negative rho (up, down):  1.814E-01 0.000E+00

     total cpu time spent up to now is       34.2 secs

     total energy              =    -712.71889843 Ry
     Harris-Foulkes estimate   =    -712.91620729 Ry
     estimated scf accuracy    <       0.28789791 Ry

     iteration #  5     ecut=    59.00 Ry     beta= 0.40
     Davidson diagonalization with overlap
     ethr =  3.20E-03,  avg # of iterations =  5.8

     negative rho (up, down):  2.237E-01 0.000E+00

     total cpu time spent up to now is       40.1 secs

     total energy              =    -712.76264593 Ry
     Harris-Foulkes estimate   =    -712.81932932 Ry
     estimated scf accuracy    <       0.09905771 Ry

     iteration #  6     ecut=    59.00 Ry     beta= 0.40
     Davidson diagonalization with overlap
     ethr =  1.10E-03,  avg # of iterations =  2.6

     negative rho (up, down):  2.224E-01 0.000E+00

     total cpu time spent up to now is       44.6 secs

     total energy              =    -712.78165298 Ry
     Harris-Foulkes estimate   =    -712.78166073 Ry
     estimated scf accuracy    <       0.00003897 Ry

     iteration #  7     ecut=    59.00 Ry     beta= 0.40
     Davidson diagonalization with overlap
     ethr =  4.33E-07,  avg # of iterations = 12.7

     negative rho (up, down):  2.217E-01 0.000E+00

     total cpu time spent up to now is       55.7 secs

     total energy              =    -712.78285171 Ry
     Harris-Foulkes estimate   =    -712.78287683 Ry
     estimated scf accuracy    <       0.00002601 Ry

     iteration #  8     ecut=    59.00 Ry     beta= 0.40
     Davidson diagonalization with overlap
     ethr =  2.89E-07,  avg # of iterations =  2.9

     negative rho (up, down):  2.226E-01 0.000E+00

     total cpu time spent up to now is       60.0 secs

     total energy              =    -712.78286455 Ry
     Harris-Foulkes estimate   =    -712.78286811 Ry
     estimated scf accuracy    <       0.00000719 Ry

     iteration #  9     ecut=    59.00 Ry     beta= 0.40
     Davidson diagonalization with overlap
     ethr =  7.99E-08,  avg # of iterations =  2.0

     negative rho (up, down):  2.225E-01 0.000E+00

     total cpu time spent up to now is       64.0 secs

     total energy              =    -712.78286417 Ry
     Harris-Foulkes estimate   =    -712.78286630 Ry
     estimated scf accuracy    <       0.00000155 Ry

     iteration # 10     ecut=    59.00 Ry     beta= 0.40
     Davidson diagonalization with overlap
     ethr =  1.72E-08,  avg # of iterations =  2.0

     negative rho (up, down):  2.225E-01 0.000E+00

     total cpu time spent up to now is       68.2 secs

     total energy              =    -712.78286376 Ry
     Harris-Foulkes estimate   =    -712.78286435 Ry
     estimated scf accuracy    <       0.00000034 Ry

     iteration # 11     ecut=    59.00 Ry     beta= 0.40
     Davidson diagonalization with overlap
     ethr =  3.80E-09,  avg # of iterations =  2.7

     negative rho (up, down):  2.225E-01 0.000E+00

     total cpu time spent up to now is       72.7 secs

     total energy              =    -712.78286387 Ry
     Harris-Foulkes estimate   =    -712.78286388 Ry
     estimated scf accuracy    <       0.00000002 Ry

     iteration # 12     ecut=    59.00 Ry     beta= 0.40
     Davidson diagonalization with overlap
     ethr =  1.86E-10,  avg # of iterations =  3.1

     negative rho (up, down):  2.225E-01 0.000E+00

     total cpu time spent up to now is       77.2 secs

     total energy              =    -712.78286386 Ry
     Harris-Foulkes estimate   =    -712.78286387 Ry
     estimated scf accuracy    <       0.00000001 Ry

     iteration # 13     ecut=    59.00 Ry     beta= 0.40
     Davidson diagonalization with overlap
     ethr =  1.36E-10,  avg # of iterations =  3.0

     negative rho (up, down):  2.225E-01 0.000E+00

     total cpu time spent up to now is       82.0 secs

     End of self-consistent calculation

     Number of k-points >= 100: set verbosity='high' to print the bands.

     the Fermi energy is  -323.8953 ev

!    total energy              =    -712.78286387 Ry
     Harris-Foulkes estimate   =    -712.78286387 Ry
     estimated scf accuracy    <          6.7E-10 Ry

     total all-electron energy =    -16167.868640 Ry

     The total energy is the sum of the following terms:

     one-electron contribution =    -316.86758210 Ry
     hartree contribution      =      54.83152886 Ry
     xc contribution           =     -28.96039984 Ry
     ewald contribution        =     -36.56760678 Ry
     one-center paw contrib.   =    -385.21015128 Ry
     smearing contrib. (-TS)   =      -0.00865274 Ry

     convergence has been achieved in  13 iterations

     negative rho (up, down):  2.225E-01 0.000E+00

     Forces acting on atoms (cartesian axes, Ry/au):

     atom    1 type  1   force =     0.00000000   -0.00000000    0.00000000
     atom    2 type  2   force =     0.00000000    0.00000000    0.00000000
     atom    3 type  3   force =     0.00000000   -0.00000000    0.00000000

     Total force =     0.000000     Total SCF correction =     0.000000


     Computing stress (Cartesian axis) and pressure


     negative rho (up, down):  2.225E-01 0.000E+00
          total   stress  (Ry/bohr**3)                   (kbar)     P=********
  -0.14350188  -0.00000000   0.00000000     -21109.85     -0.00      0.00
  -0.00000000  -0.14350188   0.00000000         -0.00 -21109.85      0.00
  -0.00000000  -0.00000000  -0.14350188         -0.00     -0.00 -21109.85


     Writing output data file NNaCs.save/

     init_run     :      2.38s CPU      2.60s WALL (       1 calls)
     electrons    :     73.19s CPU     77.53s WALL (       1 calls)
     forces       :      0.59s CPU      0.62s WALL (       1 calls)
     stress       :      1.50s CPU      1.84s WALL (       1 calls)

     Called by init_run:
     wfcinit      :      1.83s CPU      1.88s WALL (       1 calls)
     potinit      :      0.12s CPU      0.18s WALL (       1 calls)
     hinit0       :      0.34s CPU      0.43s WALL (       1 calls)

     Called by electrons:
     c_bands      :     62.69s CPU     65.72s WALL (      13 calls)
     sum_band     :      8.64s CPU      9.06s WALL (      13 calls)
     v_of_rho     :      0.27s CPU      0.32s WALL (      14 calls)
     newd         :      0.85s CPU      0.86s WALL (      14 calls)
     PAW_pot      :      0.78s CPU      1.66s WALL (      14 calls)
     mix_rho      :      0.08s CPU      0.08s WALL (      13 calls)

     Called by c_bands:
     init_us_2    :      1.79s CPU      1.87s WALL (    3190 calls)
     cegterg      :     60.19s CPU     63.07s WALL (    1430 calls)

     Called by sum_band:
     sum_band:bec :      0.05s CPU      0.05s WALL (    1430 calls)
     addusdens    :      0.71s CPU      0.73s WALL (      13 calls)

     Called by *egterg:
     h_psi        :     47.29s CPU     49.54s WALL (    8683 calls)
     s_psi        :      2.85s CPU      2.95s WALL (    8683 calls)
     g_psi        :      0.17s CPU      0.17s WALL (    7143 calls)
     cdiaghg      :      1.83s CPU      1.91s WALL (    8573 calls)

     Called by h_psi:
     h_psi:pot    :     46.80s CPU     49.04s WALL (    8683 calls)
     h_psi:calbec :      4.77s CPU      4.99s WALL (    8683 calls)
     vloc_psi     :     38.60s CPU     40.49s WALL (    8683 calls)
     add_vuspsi   :      3.39s CPU      3.51s WALL (    8683 calls)

     General routines
     calbec       :      6.17s CPU      6.62s WALL (   10663 calls)
     fft          :      0.12s CPU      0.18s WALL (     180 calls)
     ffts         :      0.01s CPU      0.01s WALL (      13 calls)
     fftw         :     36.71s CPU     38.61s WALL (  104428 calls)

     Parallel routines
     fft_scatt_xy :      4.52s CPU      4.70s WALL (  104621 calls)
     fft_scatt_yz :      6.40s CPU      7.27s WALL (  104621 calls)

     PWSCF        :  1m19.54s CPU     1m24.66s WALL


   This run was terminated on:  13:19:32  23Oct2018            

=------------------------------------------------------------------------------=
   JOB DONE.
=------------------------------------------------------------------------------=
