
     Program PWSCF v.6.3MaX starts on 23Oct2018 at 21:11:33 

     This program is part of the open-source Quantum ESPRESSO suite
     for quantum simulation of materials; please cite
         "P. Giannozzi et al., J. Phys.:Condens. Matter 21 395502 (2009);
         "P. Giannozzi et al., J. Phys.:Condens. Matter 29 465901 (2017);
          URL http://www.quantum-espresso.org", 
     in publications or presentations arising from this work. More details at
     http://www.quantum-espresso.org/quote

     Parallel version (MPI), running on     8 processors

     MPI processes distributed on     1 nodes
     R & G space division:  proc/nbgrp/npool/nimage =       8
     Waiting for input...
     Reading input from standard input
Warning: card &CELL ignored
Warning: card                CELL_DYNAMICS = 'BFGS' , ignored
Warning: card / ignored

     Current dimensions of program PWSCF are:
     Max number of different atomic species (ntypx) = 10
     Max number of k-points (npk) =  40000
     Max angular momentum in pseudopotentials (lmaxx) =  3
     Message from routine iosys:
     minimal I/O required, wf_collect reset to FALSE
               file N.pbe-n-kjpaw_psl.1.0.0.UPF: wavefunction(s)  2S renormalized
               file Na.pbe-spnl-kjpaw_psl.1.0.0.UPF: wavefunction(s)  2P renormalized

     Subspace diagonalization in iterative solution of the eigenvalue problem:
     a serial algorithm will be used


     Parallelization info
     --------------------
     sticks:   dense  smooth     PW     G-vecs:    dense   smooth      PW
     Min         209     209     62                 5731     5731     922
     Max         210     210     63                 5735     5735     926
     Sum        1675    1675    499                45863    45863    7391



     bravais-lattice index     =            2
     lattice parameter (alat)  =      12.4000  a.u.
     unit-cell volume          =     476.6560 (a.u.)^3
     number of atoms/cell      =            3
     number of atomic types    =            3
     number of electrons       =         9.00
     number of Kohn-Sham states=            9
     kinetic-energy cutoff     =      80.0000  Ry
     charge density cutoff     =     320.0000  Ry
     convergence threshold     =      1.0E-09
     mixing beta               =       0.4000
     number of iterations used =            8  plain     mixing
     Exchange-correlation      = SLA PW PBX PBC ( 1  4  3  4 0 0)

     celldm(1)=  12.400000  celldm(2)=   0.000000  celldm(3)=   0.000000
     celldm(4)=   0.000000  celldm(5)=   0.000000  celldm(6)=   0.000000

     crystal axes: (cart. coord. in units of alat)
               a(1) = (  -0.500000   0.000000   0.500000 )  
               a(2) = (   0.000000   0.500000   0.500000 )  
               a(3) = (  -0.500000   0.500000   0.000000 )  

     reciprocal axes: (cart. coord. in units 2 pi/alat)
               b(1) = ( -1.000000 -1.000000  1.000000 )  
               b(2) = (  1.000000  1.000000  1.000000 )  
               b(3) = ( -1.000000  1.000000 -1.000000 )  


     PseudoPot. # 1 for N  read from file:
     ./ps/N.pbe-n-kjpaw_psl.1.0.0.UPF
     MD5 check sum: 200139db3989ad6e773ddd42f12fc3a8
     Pseudo is Projector augmented-wave + core cor, Zval =  5.0
     Generated using "atomic" code by A. Dal Corso v.6.3
     Shape of augmentation charge: PSQ
     Using radial grid of 1085 points,  4 beta functions with: 
                l(1) =   0
                l(2) =   0
                l(3) =   1
                l(4) =   1
     Q(r) pseudized with 0 coefficients 


     PseudoPot. # 2 for Na read from file:
     ./ps/Na.pbe-spnl-kjpaw_psl.1.0.0.UPF
     MD5 check sum: 09e782c158f17eb2240230c4112357ee
     Pseudo is Projector augmented-wave + core cor, Zval =  9.0
     Generated using "atomic" code by A. Dal Corso v.6.3
     Shape of augmentation charge: PSQ
     Using radial grid of 1121 points,  4 beta functions with: 
                l(1) =   0
                l(2) =   0
                l(3) =   1
                l(4) =   1
     Q(r) pseudized with 0 coefficients 


     PseudoPot. # 3 for Cs read from file:
     ./ps/Cs.pbe-spnl-kjpaw_psl.1.0.0.UPF
     MD5 check sum: f98336d4a4407e24c1ab1e3bc36275e8
     Pseudo is Projector augmented-wave + core cor, Zval = -5.0
     Generated using "atomic" code by A. Dal Corso v.6.2.2
     Shape of augmentation charge: PSQ
     Using radial grid of 1251 points,  6 beta functions with: 
                l(1) =   0
                l(2) =   0
                l(3) =   1
                l(4) =   1
                l(5) =   2
                l(6) =   2
     Q(r) pseudized with 0 coefficients 


     atomic species   valence    mass     pseudopotential
        N              5.00    14.00670     N ( 1.00)
        Na             9.00    22.98977     Na( 1.00)
        Cs            -5.00   132.90545     Cs( 1.00)

     24 Sym. Ops. (no inversion) found



   Cartesian axes

     site n.     atom                  positions (alat units)
         1           N   tau(   1) = (   0.0000000   0.0000000   0.0000000  )
         2           Na  tau(   2) = (  -0.2500000   0.2500000   0.2500000  )
         3           Cs  tau(   3) = (  -0.7500000   0.7500000   0.7500000  )

     number of k points=   110  Methfessel-Paxton smearing, width (Ry)=  0.0200

     Number of k-points >= 100: set verbosity='high' to print them.

     Dense  grid:    45863 G-vectors     FFT dimensions: (  50,  50,  50)

     Estimated max dynamical RAM per process >      41.36 MB

     Estimated total dynamical RAM >     330.86 MB

     Check: negative/imaginary core charge=   -0.000003    0.000000

     Initial potential from superposition of free atoms

     starting charge   22.95298, renormalised to    9.00000
     Starting wfcs are   14 randomized atomic wfcs
     Checking if some PAW data can be deallocated... 

     total cpu time spent up to now is        6.2 secs

     Self-consistent Calculation

     iteration #  1     ecut=    80.00 Ry     beta= 0.40
     Davidson diagonalization with overlap
     ethr =  1.00E-02,  avg # of iterations = 13.1

     negative rho (up, down):  3.205E-02 0.000E+00

     total cpu time spent up to now is       23.5 secs

     total energy              =    -834.00049288 Ry
     Harris-Foulkes estimate   =    -851.63569786 Ry
     estimated scf accuracy    <      33.44864177 Ry

     iteration #  2     ecut=    80.00 Ry     beta= 0.40
     Davidson diagonalization with overlap
     ethr =  1.00E-02,  avg # of iterations = 10.1

     negative rho (up, down):  7.194E-04 0.000E+00

     total cpu time spent up to now is       34.2 secs

     total energy              =    -832.27811126 Ry
     Harris-Foulkes estimate   =    -835.02534742 Ry
     estimated scf accuracy    <       4.23653385 Ry

     iteration #  3     ecut=    80.00 Ry     beta= 0.40
     Davidson diagonalization with overlap
     ethr =  1.00E-02,  avg # of iterations =  4.0

     negative rho (up, down):  8.620E-07 0.000E+00

     total cpu time spent up to now is       39.7 secs

     total energy              =    -831.38454718 Ry
     Harris-Foulkes estimate   =    -832.31617853 Ry
     estimated scf accuracy    <       1.12303889 Ry

     iteration #  4     ecut=    80.00 Ry     beta= 0.40
     Davidson diagonalization with overlap
     ethr =  1.00E-02,  avg # of iterations =  2.5

     negative rho (up, down):  7.121E-05 0.000E+00

     total cpu time spent up to now is       44.4 secs

     total energy              =    -833.95264156 Ry
     Harris-Foulkes estimate   =    -833.65415138 Ry
     estimated scf accuracy    <       8.63760765 Ry

     iteration #  5     ecut=    80.00 Ry     beta= 0.40
     Davidson diagonalization with overlap
     ethr =  1.00E-02,  avg # of iterations =  1.1

     negative rho (up, down):  5.971E-05 0.000E+00

     total cpu time spent up to now is       48.9 secs

     total energy              =    -833.72363371 Ry
     Harris-Foulkes estimate   =    -833.95408876 Ry
     estimated scf accuracy    <       9.01352049 Ry

     iteration #  6     ecut=    80.00 Ry     beta= 0.40
     Davidson diagonalization with overlap
     ethr =  1.00E-02,  avg # of iterations =  1.2

     negative rho (up, down):  1.761E-03 0.000E+00

     total cpu time spent up to now is       53.4 secs

     total energy              =    -832.02992671 Ry
     Harris-Foulkes estimate   =    -833.72415691 Ry
     estimated scf accuracy    <       8.72152517 Ry

     iteration #  7     ecut=    80.00 Ry     beta= 0.40
     Davidson diagonalization with overlap
     ethr =  1.00E-02,  avg # of iterations =  1.2

     negative rho (up, down):  6.725E-02 0.000E+00

     total cpu time spent up to now is       57.8 secs

     total energy              =    -830.51319451 Ry
     Harris-Foulkes estimate   =    -832.04202296 Ry
     estimated scf accuracy    <       6.43741915 Ry

     iteration #  8     ecut=    80.00 Ry     beta= 0.40
     Davidson diagonalization with overlap
     ethr =  1.00E-02,  avg # of iterations =  2.2

     negative rho (up, down):  1.160E-02 0.000E+00

     total cpu time spent up to now is       62.5 secs

     total energy              =    -831.60927056 Ry
     Harris-Foulkes estimate   =    -831.92366215 Ry
     estimated scf accuracy    <       0.70546251 Ry

     iteration #  9     ecut=    80.00 Ry     beta= 0.40
     Davidson diagonalization with overlap
     ethr =  7.84E-03,  avg # of iterations =  1.2

     negative rho (up, down):  3.939E-02 0.000E+00

     total cpu time spent up to now is       66.8 secs

     total energy              =    -831.83581916 Ry
     Harris-Foulkes estimate   =    -831.62072738 Ry
     estimated scf accuracy    <       0.30189563 Ry

     iteration # 10     ecut=    80.00 Ry     beta= 0.40
     Davidson diagonalization with overlap
     ethr =  3.35E-03,  avg # of iterations =  1.3

     negative rho (up, down):  2.662E-03 0.000E+00

     total cpu time spent up to now is       71.2 secs

     total energy              =    -831.55843080 Ry
     Harris-Foulkes estimate   =    -831.82756989 Ry
     estimated scf accuracy    <       0.55529207 Ry

     iteration # 11     ecut=    80.00 Ry     beta= 0.40
     Davidson diagonalization with overlap
     ethr =  3.35E-03,  avg # of iterations =  2.3

     negative rho (up, down):  1.194E-02 0.000E+00

     total cpu time spent up to now is       75.9 secs

     total energy              =    -831.31281857 Ry
     Harris-Foulkes estimate   =    -831.82413246 Ry
     estimated scf accuracy    <       6.09284519 Ry

     iteration # 12     ecut=    80.00 Ry     beta= 0.40
     Davidson diagonalization with overlap
     ethr =  3.35E-03,  avg # of iterations =  1.3

     negative rho (up, down):  1.668E-02 0.000E+00

     total cpu time spent up to now is       80.3 secs

     total energy              =    -831.71129208 Ry
     Harris-Foulkes estimate   =    -831.67316569 Ry
     estimated scf accuracy    <       0.32354289 Ry

     iteration # 13     ecut=    80.00 Ry     beta= 0.40
     Davidson diagonalization with overlap
     ethr =  3.35E-03,  avg # of iterations =  1.1

     negative rho (up, down):  8.282E-03 0.000E+00

     total cpu time spent up to now is       84.6 secs

     total energy              =    -831.64969159 Ry
     Harris-Foulkes estimate   =    -831.71166148 Ry
     estimated scf accuracy    <       0.37854804 Ry

     iteration # 14     ecut=    80.00 Ry     beta= 0.40
     Davidson diagonalization with overlap
     ethr =  3.35E-03,  avg # of iterations =  1.0

     negative rho (up, down):  3.596E-03 0.000E+00

     total cpu time spent up to now is       88.9 secs

     total energy              =    -831.60576596 Ry
     Harris-Foulkes estimate   =    -831.65004827 Ry
     estimated scf accuracy    <       0.29393578 Ry

     iteration # 15     ecut=    80.00 Ry     beta= 0.40
     Davidson diagonalization with overlap
     ethr =  3.27E-03,  avg # of iterations =  1.1

     negative rho (up, down):  1.199E-02 0.000E+00

     total cpu time spent up to now is       93.2 secs

     total energy              =    -831.39824765 Ry
     Harris-Foulkes estimate   =    -831.62309575 Ry
     estimated scf accuracy    <       2.54280864 Ry

     iteration # 16     ecut=    80.00 Ry     beta= 0.40
     Davidson diagonalization with overlap
     ethr =  3.27E-03,  avg # of iterations =  1.1

     negative rho (up, down):  1.087E-02 0.000E+00

     total cpu time spent up to now is       97.5 secs

     total energy              =    -831.67548636 Ry
     Harris-Foulkes estimate   =    -831.68217469 Ry
     estimated scf accuracy    <       0.33392132 Ry

     iteration # 17     ecut=    80.00 Ry     beta= 0.40
     Davidson diagonalization with overlap
     ethr =  3.27E-03,  avg # of iterations =  1.0

     negative rho (up, down):  9.648E-03 0.000E+00

     total cpu time spent up to now is      101.8 secs

     total energy              =    -831.66755362 Ry
     Harris-Foulkes estimate   =    -831.67560579 Ry
     estimated scf accuracy    <       0.32681528 Ry

     iteration # 18     ecut=    80.00 Ry     beta= 0.40
     Davidson diagonalization with overlap
     ethr =  3.27E-03,  avg # of iterations =  1.0

     negative rho (up, down):  6.073E-03 0.000E+00

     total cpu time spent up to now is      106.2 secs

     total energy              =    -831.64219804 Ry
     Harris-Foulkes estimate   =    -831.66755914 Ry
     estimated scf accuracy    <       0.31648895 Ry

     iteration # 19     ecut=    80.00 Ry     beta= 0.40
     Davidson diagonalization with overlap
     ethr =  3.27E-03,  avg # of iterations =  1.0

     negative rho (up, down):  1.057E-02 0.000E+00

     total cpu time spent up to now is      110.7 secs

     total energy              =    -831.67244264 Ry
     Harris-Foulkes estimate   =    -831.64233278 Ry
     estimated scf accuracy    <       0.27876006 Ry

     iteration # 20     ecut=    80.00 Ry     beta= 0.40
     Davidson diagonalization with overlap
     ethr =  3.10E-03,  avg # of iterations =  1.0

     negative rho (up, down):  9.719E-03 0.000E+00

     total cpu time spent up to now is      115.0 secs

     total energy              =    -831.66826454 Ry
     Harris-Foulkes estimate   =    -831.67264910 Ry
     estimated scf accuracy    <       0.32423383 Ry

     iteration # 21     ecut=    80.00 Ry     beta= 0.40
     Davidson diagonalization with overlap
     ethr =  3.10E-03,  avg # of iterations =  1.0

     negative rho (up, down):  1.029E-02 0.000E+00

     total cpu time spent up to now is      119.3 secs

     total energy              =    -831.67029723 Ry
     Harris-Foulkes estimate   =    -831.66827259 Ry
     estimated scf accuracy    <       0.31816684 Ry

     iteration # 22     ecut=    80.00 Ry     beta= 0.40
     Davidson diagonalization with overlap
     ethr =  3.10E-03,  avg # of iterations =  1.0

     negative rho (up, down):  6.923E-03 0.000E+00

     total cpu time spent up to now is      123.6 secs

     total energy              =    -831.65177428 Ry
     Harris-Foulkes estimate   =    -831.67029825 Ry
     estimated scf accuracy    <       0.32094580 Ry

     iteration # 23     ecut=    80.00 Ry     beta= 0.40
     Davidson diagonalization with overlap
     ethr =  3.10E-03,  avg # of iterations =  1.0

     negative rho (up, down):  4.856E-03 0.000E+00

     total cpu time spent up to now is      127.9 secs

     total energy              =    -831.63826639 Ry
     Harris-Foulkes estimate   =    -831.65185791 Ry
     estimated scf accuracy    <       0.29275422 Ry

     iteration # 24     ecut=    80.00 Ry     beta= 0.40
     Davidson diagonalization with overlap
     ethr =  3.10E-03,  avg # of iterations =  1.0

     negative rho (up, down):  1.119E-03 0.000E+00

     total cpu time spent up to now is      132.2 secs

     total energy              =    -831.42366354 Ry
     Harris-Foulkes estimate   =    -831.63831327 Ry
     estimated scf accuracy    <       0.27236489 Ry

     iteration # 25     ecut=    80.00 Ry     beta= 0.40
     Davidson diagonalization with overlap
     ethr =  3.03E-03,  avg # of iterations =  2.0

     negative rho (up, down):  2.057E-03 0.000E+00

     total cpu time spent up to now is      136.8 secs

     total energy              =    -831.78413880 Ry
     Harris-Foulkes estimate   =    -833.42352960 Ry
     estimated scf accuracy    <       8.33950429 Ry

     iteration # 26     ecut=    80.00 Ry     beta= 0.40
     Davidson diagonalization with overlap
     ethr =  3.03E-03,  avg # of iterations =  1.0

     negative rho (up, down):  1.338E-02 0.000E+00

     total cpu time spent up to now is      141.2 secs

     total energy              =    -831.28775367 Ry
     Harris-Foulkes estimate   =    -831.79870198 Ry
     estimated scf accuracy    <       6.07472079 Ry

     iteration # 27     ecut=    80.00 Ry     beta= 0.40
     Davidson diagonalization with overlap
     ethr =  3.03E-03,  avg # of iterations =  1.0

     negative rho (up, down):  1.957E-02 0.000E+00

     total cpu time spent up to now is      145.6 secs

     total energy              =    -831.71365033 Ry
     Harris-Foulkes estimate   =    -831.67887904 Ry
     estimated scf accuracy    <       0.33029902 Ry

     iteration # 28     ecut=    80.00 Ry     beta= 0.40
     Davidson diagonalization with overlap
     ethr =  3.03E-03,  avg # of iterations =  1.0

     negative rho (up, down):  1.460E-02 0.000E+00

     total cpu time spent up to now is      150.1 secs

     total energy              =    -831.68876585 Ry
     Harris-Foulkes estimate   =    -831.71421395 Ry
     estimated scf accuracy    <       0.38007001 Ry

     iteration # 29     ecut=    80.00 Ry     beta= 0.40
     Davidson diagonalization with overlap
     ethr =  3.03E-03,  avg # of iterations =  1.0

     negative rho (up, down):  4.738E-03 0.000E+00

     total cpu time spent up to now is      154.5 secs

     total energy              =    -831.62879021 Ry
     Harris-Foulkes estimate   =    -831.68882379 Ry
     estimated scf accuracy    <       0.34801581 Ry

     iteration # 30     ecut=    80.00 Ry     beta= 0.40
     Davidson diagonalization with overlap
     ethr =  3.03E-03,  avg # of iterations =  1.0

     negative rho (up, down):  5.191E-03 0.000E+00

     total cpu time spent up to now is      158.8 secs

     total energy              =    -831.63258091 Ry
     Harris-Foulkes estimate   =    -831.62950052 Ry
     estimated scf accuracy    <       0.26042631 Ry

     iteration # 31     ecut=    80.00 Ry     beta= 0.40
     Davidson diagonalization with overlap
     ethr =  2.89E-03,  avg # of iterations =  1.0

     negative rho (up, down):  1.600E-02 0.000E+00

     total cpu time spent up to now is      163.2 secs

     total energy              =    -831.69693208 Ry
     Harris-Foulkes estimate   =    -831.63259163 Ry
     estimated scf accuracy    <       0.26402148 Ry

     iteration # 32     ecut=    80.00 Ry     beta= 0.40
     Davidson diagonalization with overlap
     ethr =  2.89E-03,  avg # of iterations =  1.0

     negative rho (up, down):  1.780E-02 0.000E+00

     total cpu time spent up to now is      167.6 secs

     total energy              =    -831.70333810 Ry
     Harris-Foulkes estimate   =    -831.69783111 Ry
     estimated scf accuracy    <       0.36172088 Ry

     iteration # 33     ecut=    80.00 Ry     beta= 0.40
     Davidson diagonalization with overlap
     ethr =  2.89E-03,  avg # of iterations =  1.0

     negative rho (up, down):  2.738E-02 0.000E+00

     total cpu time spent up to now is      171.9 secs

     total energy              =    -831.74719266 Ry
     Harris-Foulkes estimate   =    -831.70336112 Ry
     estimated scf accuracy    <       0.36965251 Ry

     iteration # 34     ecut=    80.00 Ry     beta= 0.40
     Davidson diagonalization with overlap
     ethr =  2.89E-03,  avg # of iterations =  1.0

     negative rho (up, down):  7.049E-02 0.000E+00

     total cpu time spent up to now is      176.3 secs

     total energy              =    -831.92182475 Ry
     Harris-Foulkes estimate   =    -831.74754667 Ry
     estimated scf accuracy    <       0.43614775 Ry

     iteration # 35     ecut=    80.00 Ry     beta= 0.40
     Davidson diagonalization with overlap
     ethr =  2.89E-03,  avg # of iterations =  1.0

     negative rho (up, down):  1.164E-03 0.000E+00

     total cpu time spent up to now is      180.5 secs

     total energy              =    -831.37141164 Ry
     Harris-Foulkes estimate   =    -831.92553091 Ry
     estimated scf accuracy    <       0.70283803 Ry

     iteration # 36     ecut=    80.00 Ry     beta= 0.40
     Davidson diagonalization with overlap
     ethr =  2.89E-03,  avg # of iterations =  2.0

     negative rho (up, down):  1.123E-03 0.000E+00

     total cpu time spent up to now is      185.7 secs

     total energy              =    -832.29567048 Ry
     Harris-Foulkes estimate   =    -833.42149046 Ry
     estimated scf accuracy    <       8.34595655 Ry

     iteration # 37     ecut=    80.00 Ry     beta= 0.40
     Davidson diagonalization with overlap
     ethr =  2.89E-03,  avg # of iterations =  1.0

     negative rho (up, down):  1.069E-02 0.000E+00

     total cpu time spent up to now is      190.1 secs

     total energy              =    -831.33031348 Ry
     Harris-Foulkes estimate   =    -832.30174319 Ry
     estimated scf accuracy    <       6.81377807 Ry

     iteration # 38     ecut=    80.00 Ry     beta= 0.40
     Davidson diagonalization with overlap
     ethr =  2.89E-03,  avg # of iterations =  2.0

     negative rho (up, down):  8.834E-03 0.000E+00

     total cpu time spent up to now is      194.8 secs

     total energy              =    -831.65993387 Ry
     Harris-Foulkes estimate   =    -831.66714440 Ry
     estimated scf accuracy    <       0.31722063 Ry

     iteration # 39     ecut=    80.00 Ry     beta= 0.40
     Davidson diagonalization with overlap
     ethr =  2.89E-03,  avg # of iterations =  1.0

     negative rho (up, down):  1.447E-02 0.000E+00

     total cpu time spent up to now is      199.2 secs

     total energy              =    -831.69152768 Ry
     Harris-Foulkes estimate   =    -831.66002154 Ry
     estimated scf accuracy    <       0.30579062 Ry

     iteration # 40     ecut=    80.00 Ry     beta= 0.40
     Davidson diagonalization with overlap
     ethr =  2.89E-03,  avg # of iterations =  1.0

     negative rho (up, down):  1.612E-02 0.000E+00

     total cpu time spent up to now is      203.6 secs

     total energy              =    -831.70097592 Ry
     Harris-Foulkes estimate   =    -831.69170780 Ry
     estimated scf accuracy    <       0.35236455 Ry

     iteration # 41     ecut=    80.00 Ry     beta= 0.40
     Davidson diagonalization with overlap
     ethr =  2.89E-03,  avg # of iterations =  1.0

     negative rho (up, down):  1.521E-02 0.000E+00

     total cpu time spent up to now is      208.0 secs

     total energy              =    -831.69289283 Ry
     Harris-Foulkes estimate   =    -831.70100470 Ry
     estimated scf accuracy    <       0.36563466 Ry

     iteration # 42     ecut=    80.00 Ry     beta= 0.40
     Davidson diagonalization with overlap
     ethr =  2.89E-03,  avg # of iterations =  1.0

     negative rho (up, down):  8.205E-03 0.000E+00

     total cpu time spent up to now is      212.3 secs

     total energy              =    -831.65051096 Ry
     Harris-Foulkes estimate   =    -831.69289934 Ry
     estimated scf accuracy    <       0.35509027 Ry

     iteration # 43     ecut=    80.00 Ry     beta= 0.40
     Davidson diagonalization with overlap
     ethr =  2.89E-03,  avg # of iterations =  1.0

     negative rho (up, down):  7.999E-03 0.000E+00

     total cpu time spent up to now is      216.7 secs

     total energy              =    -831.64949329 Ry
     Harris-Foulkes estimate   =    -831.65087900 Ry
     estimated scf accuracy    <       0.29210094 Ry

     iteration # 44     ecut=    80.00 Ry     beta= 0.40
     Davidson diagonalization with overlap
     ethr =  2.89E-03,  avg # of iterations =  1.0

     negative rho (up, down):  1.322E-02 0.000E+00

     total cpu time spent up to now is      220.9 secs

     total energy              =    -831.68227583 Ry
     Harris-Foulkes estimate   =    -831.64950004 Ry
     estimated scf accuracy    <       0.29013175 Ry

     iteration # 45     ecut=    80.00 Ry     beta= 0.40
     Davidson diagonalization with overlap
     ethr =  2.89E-03,  avg # of iterations =  1.0

     negative rho (up, down):  1.219E-02 0.000E+00

     total cpu time spent up to now is      225.1 secs

     total energy              =    -831.67510121 Ry
     Harris-Foulkes estimate   =    -831.68247575 Ry
     estimated scf accuracy    <       0.33895718 Ry

     iteration # 46     ecut=    80.00 Ry     beta= 0.40
     Davidson diagonalization with overlap
     ethr =  2.89E-03,  avg # of iterations =  1.0

     negative rho (up, down):  1.115E-03 0.000E+00

     total cpu time spent up to now is      229.4 secs

     total energy              =    -831.41541622 Ry
     Harris-Foulkes estimate   =    -831.67511061 Ry
     estimated scf accuracy    <       0.32898147 Ry

     iteration # 47     ecut=    80.00 Ry     beta= 0.40
     Davidson diagonalization with overlap
     ethr =  2.89E-03,  avg # of iterations =  2.0

     negative rho (up, down):  2.190E-03 0.000E+00

     total cpu time spent up to now is      233.9 secs

     total energy              =    -831.73582175 Ry
     Harris-Foulkes estimate   =    -833.43821621 Ry
     estimated scf accuracy    <       8.35787137 Ry

     iteration # 48     ecut=    80.00 Ry     beta= 0.40
     Davidson diagonalization with overlap
     ethr =  2.89E-03,  avg # of iterations =  1.0

     negative rho (up, down):  2.588E-03 0.000E+00

     total cpu time spent up to now is      238.2 secs

     total energy              =    -831.69717855 Ry
     Harris-Foulkes estimate   =    -831.75171680 Ry
     estimated scf accuracy    <       6.00217128 Ry

     iteration # 49     ecut=    80.00 Ry     beta= 0.40
     Davidson diagonalization with overlap
     ethr =  2.89E-03,  avg # of iterations =  1.0

     negative rho (up, down):  1.447E-02 0.000E+00

     total cpu time spent up to now is      242.5 secs

     total energy              =    -831.25066284 Ry
     Harris-Foulkes estimate   =    -831.69751711 Ry
     estimated scf accuracy    <       5.93710355 Ry

     iteration # 50     ecut=    80.00 Ry     beta= 0.40
     Davidson diagonalization with overlap
     ethr =  2.89E-03,  avg # of iterations =  1.0

     negative rho (up, down):  6.929E-03 0.000E+00

     total cpu time spent up to now is      247.0 secs

     total energy              =    -831.63976837 Ry
     Harris-Foulkes estimate   =    -831.68857481 Ry
     estimated scf accuracy    <       0.34648919 Ry

     iteration # 51     ecut=    80.00 Ry     beta= 0.40
     Davidson diagonalization with overlap
     ethr =  2.89E-03,  avg # of iterations =  1.0

     negative rho (up, down):  5.254E-03 0.000E+00

     total cpu time spent up to now is      251.4 secs

     total energy              =    -831.62860332 Ry
     Harris-Foulkes estimate   =    -831.64014794 Ry
     estimated scf accuracy    <       0.28058735 Ry

     iteration # 52     ecut=    80.00 Ry     beta= 0.40
     Davidson diagonalization with overlap
     ethr =  2.89E-03,  avg # of iterations =  1.0

     negative rho (up, down):  5.055E-03 0.000E+00

     total cpu time spent up to now is      255.7 secs

     total energy              =    -831.62980873 Ry
     Harris-Foulkes estimate   =    -831.62879383 Ry
     estimated scf accuracy    <       0.26256415 Ry

     iteration # 53     ecut=    80.00 Ry     beta= 0.40
     Davidson diagonalization with overlap
     ethr =  2.89E-03,  avg # of iterations =  1.0

     negative rho (up, down):  1.089E-02 0.000E+00

     total cpu time spent up to now is      260.1 secs

     total energy              =    -831.66545277 Ry
     Harris-Foulkes estimate   =    -831.62985182 Ry
     estimated scf accuracy    <       0.26220796 Ry

     iteration # 54     ecut=    80.00 Ry     beta= 0.40
     Davidson diagonalization with overlap
     ethr =  2.89E-03,  avg # of iterations =  1.0

     negative rho (up, down):  9.379E-03 0.000E+00

     total cpu time spent up to now is      264.4 secs

     total energy              =    -831.65798292 Ry
     Harris-Foulkes estimate   =    -831.66563761 Ry
     estimated scf accuracy    <       0.31420578 Ry

     iteration # 55     ecut=    80.00 Ry     beta= 0.40
     Davidson diagonalization with overlap
     ethr =  2.89E-03,  avg # of iterations =  1.0

     negative rho (up, down):  8.208E-03 0.000E+00

     total cpu time spent up to now is      268.7 secs

     total energy              =    -831.65251121 Ry
     Harris-Foulkes estimate   =    -831.65799980 Ry
     estimated scf accuracy    <       0.30357519 Ry

     iteration # 56     ecut=    80.00 Ry     beta= 0.40
     Davidson diagonalization with overlap
     ethr =  2.89E-03,  avg # of iterations =  1.0

     negative rho (up, down):  1.044E-02 0.000E+00

     total cpu time spent up to now is      272.9 secs

     total energy              =    -831.67144060 Ry
     Harris-Foulkes estimate   =    -831.65253037 Ry
     estimated scf accuracy    <       0.29457923 Ry

     iteration # 57     ecut=    80.00 Ry     beta= 0.40
     Davidson diagonalization with overlap
     ethr =  2.89E-03,  avg # of iterations =  1.0

     negative rho (up, down):  1.202E-02 0.000E+00

     total cpu time spent up to now is      277.2 secs

     total energy              =    -831.67997571 Ry
     Harris-Foulkes estimate   =    -831.67150314 Ry
     estimated scf accuracy    <       0.32231878 Ry

     iteration # 58     ecut=    80.00 Ry     beta= 0.40
     Davidson diagonalization with overlap
     ethr =  2.89E-03,  avg # of iterations =  1.0

     negative rho (up, down):  1.148E-03 0.000E+00

     total cpu time spent up to now is      281.4 secs

     total energy              =    -831.41602773 Ry
     Harris-Foulkes estimate   =    -831.67999718 Ry
     estimated scf accuracy    <       0.33444307 Ry

     iteration # 59     ecut=    80.00 Ry     beta= 0.40
     Davidson diagonalization with overlap
     ethr =  2.89E-03,  avg # of iterations =  2.0

     negative rho (up, down):  2.863E-03 0.000E+00

     total cpu time spent up to now is      286.1 secs

     total energy              =    -831.64975099 Ry
     Harris-Foulkes estimate   =    -833.44107902 Ry
     estimated scf accuracy    <       8.36166390 Ry

     iteration # 60     ecut=    80.00 Ry     beta= 0.40
     Davidson diagonalization with overlap
     ethr =  2.89E-03,  avg # of iterations =  1.0

     negative rho (up, down):  1.548E-02 0.000E+00

     total cpu time spent up to now is      290.4 secs

     total energy              =    -831.21295991 Ry
     Harris-Foulkes estimate   =    -831.66746403 Ry
     estimated scf accuracy    <       6.24412923 Ry

     iteration # 61     ecut=    80.00 Ry     beta= 0.40
     Davidson diagonalization with overlap
     ethr =  2.89E-03,  avg # of iterations =  1.0

     negative rho (up, down):  8.735E-03 0.000E+00

     total cpu time spent up to now is      294.9 secs

     total energy              =    -831.65358599 Ry
     Harris-Foulkes estimate   =    -831.69426232 Ry
     estimated scf accuracy    <       0.34891331 Ry

     iteration # 62     ecut=    80.00 Ry     beta= 0.40
     Davidson diagonalization with overlap
     ethr =  2.89E-03,  avg # of iterations =  1.0

     negative rho (up, down):  5.277E-03 0.000E+00

     total cpu time spent up to now is      299.2 secs

     total energy              =    -831.63161975 Ry
     Harris-Foulkes estimate   =    -831.65394631 Ry
     estimated scf accuracy    <       0.29716711 Ry

     iteration # 63     ecut=    80.00 Ry     beta= 0.40
     Davidson diagonalization with overlap
     ethr =  2.89E-03,  avg # of iterations =  1.0

     negative rho (up, down):  4.232E-03 0.000E+00

     total cpu time spent up to now is      303.5 secs

     total energy              =    -831.62436438 Ry
     Harris-Foulkes estimate   =    -831.63177519 Ry
     estimated scf accuracy    <       0.26354126 Ry

     iteration # 64     ecut=    80.00 Ry     beta= 0.40
     Davidson diagonalization with overlap
     ethr =  2.89E-03,  avg # of iterations =  1.0

     negative rho (up, down):  3.672E-03 0.000E+00

     total cpu time spent up to now is      307.7 secs

     total energy              =    -831.61347914 Ry
     Harris-Foulkes estimate   =    -831.62433248 Ry
     estimated scf accuracy    <       0.27001123 Ry

     iteration # 65     ecut=    80.00 Ry     beta= 0.40
     Davidson diagonalization with overlap
     ethr =  2.89E-03,  avg # of iterations =  1.0

     negative rho (up, down):  3.721E-03 0.000E+00

     total cpu time spent up to now is      311.8 secs

     total energy              =    -831.61501496 Ry
     Harris-Foulkes estimate   =    -831.61322711 Ry
     estimated scf accuracy    <       0.05782626 Ry

     iteration # 66     ecut=    80.00 Ry     beta= 0.40
     Davidson diagonalization with overlap
     ethr =  6.43E-04,  avg # of iterations =  1.0

     negative rho (up, down):  3.428E-03 0.000E+00

     total cpu time spent up to now is      316.1 secs

     total energy              =    -831.60933515 Ry
     Harris-Foulkes estimate   =    -831.61658670 Ry
     estimated scf accuracy    <       0.33798880 Ry

     iteration # 67     ecut=    80.00 Ry     beta= 0.40
     Davidson diagonalization with overlap
     ethr =  6.43E-04,  avg # of iterations =  1.0

     negative rho (up, down):  1.707E-03 0.000E+00

     total cpu time spent up to now is      320.6 secs

     total energy              =    -831.64488076 Ry
     Harris-Foulkes estimate   =    -831.61335710 Ry
     estimated scf accuracy    <       0.08878031 Ry

     iteration # 68     ecut=    80.00 Ry     beta= 0.40
     Davidson diagonalization with overlap
     ethr =  6.43E-04,  avg # of iterations =  1.0

     negative rho (up, down):  1.934E-03 0.000E+00

     total cpu time spent up to now is      325.0 secs

     total energy              =    -831.75192764 Ry
     Harris-Foulkes estimate   =    -831.82742762 Ry
     estimated scf accuracy    <       6.10756856 Ry

     iteration # 69     ecut=    80.00 Ry     beta= 0.40
     Davidson diagonalization with overlap
     ethr =  6.43E-04,  avg # of iterations =  1.0

     negative rho (up, down):  1.163E-03 0.000E+00

     total cpu time spent up to now is      329.2 secs

     total energy              =    -831.89042342 Ry
     Harris-Foulkes estimate   =    -831.75198544 Ry
     estimated scf accuracy    <       5.99456423 Ry

     iteration # 70     ecut=    80.00 Ry     beta= 0.40
     Davidson diagonalization with overlap
     ethr =  6.43E-04,  avg # of iterations =  1.0

     negative rho (up, down):  1.210E-02 0.000E+00

     total cpu time spent up to now is      333.6 secs

     total energy              =    -831.31294687 Ry
     Harris-Foulkes estimate   =    -831.89063747 Ry
     estimated scf accuracy    <       6.20361804 Ry

     iteration # 71     ecut=    80.00 Ry     beta= 0.40
     Davidson diagonalization with overlap
     ethr =  6.43E-04,  avg # of iterations =  2.0

     negative rho (up, down):  1.600E-03 0.000E+00

     total cpu time spent up to now is      338.2 secs

     total energy              =    -831.56742236 Ry
     Harris-Foulkes estimate   =    -831.67291279 Ry
     estimated scf accuracy    <       0.32487263 Ry

     iteration # 72     ecut=    80.00 Ry     beta= 0.40
     Davidson diagonalization with overlap
     ethr =  6.43E-04,  avg # of iterations =  2.0

     negative rho (up, down):  8.620E-03 0.000E+00

     total cpu time spent up to now is      342.9 secs

     total energy              =    -831.37088200 Ry
     Harris-Foulkes estimate   =    -831.82350325 Ry
     estimated scf accuracy    <       6.09802725 Ry

     iteration # 73     ecut=    80.00 Ry     beta= 0.40
     Davidson diagonalization with overlap
     ethr =  6.43E-04,  avg # of iterations =  2.0

     negative rho (up, down):  5.275E-03 0.000E+00

     total cpu time spent up to now is      347.5 secs

     total energy              =    -831.63627949 Ry
     Harris-Foulkes estimate   =    -831.65957318 Ry
     estimated scf accuracy    <       0.30450464 Ry

     iteration # 74     ecut=    80.00 Ry     beta= 0.40
     Davidson diagonalization with overlap
     ethr =  6.43E-04,  avg # of iterations =  1.0

     negative rho (up, down):  2.520E-02 0.000E+00

     total cpu time spent up to now is      351.8 secs

     total energy              =    -831.75672680 Ry
     Harris-Foulkes estimate   =    -831.63639909 Ry
     estimated scf accuracy    <       0.27069141 Ry

     iteration # 75     ecut=    80.00 Ry     beta= 0.40
     Davidson diagonalization with overlap
     ethr =  6.43E-04,  avg # of iterations =  2.0

     negative rho (up, down):  2.637E-02 0.000E+00

     total cpu time spent up to now is      356.3 secs

     total energy              =    -831.75641641 Ry
     Harris-Foulkes estimate   =    -831.75918529 Ry
     estimated scf accuracy    <       0.45357353 Ry

     iteration # 76     ecut=    80.00 Ry     beta= 0.40
     Davidson diagonalization with overlap
     ethr =  6.43E-04,  avg # of iterations =  1.0

     negative rho (up, down):  3.876E-02 0.000E+00

     total cpu time spent up to now is      360.5 secs

     total energy              =    -831.81440147 Ry
     Harris-Foulkes estimate   =    -831.75644114 Ry
     estimated scf accuracy    <       0.44951700 Ry

     iteration # 77     ecut=    80.00 Ry     beta= 0.40
     Davidson diagonalization with overlap
     ethr =  6.43E-04,  avg # of iterations =  1.0

     negative rho (up, down):  5.966E-02 0.000E+00

     total cpu time spent up to now is      365.1 secs

     total energy              =    -831.89342652 Ry
     Harris-Foulkes estimate   =    -831.81486413 Ry
     estimated scf accuracy    <       0.53715079 Ry

     iteration # 78     ecut=    80.00 Ry     beta= 0.40
     Davidson diagonalization with overlap
     ethr =  6.43E-04,  avg # of iterations =  1.0

     negative rho (up, down):  4.838E-03 0.000E+00

     total cpu time spent up to now is      369.4 secs

     total energy              =    -831.62570935 Ry
     Harris-Foulkes estimate   =    -831.89408096 Ry
     estimated scf accuracy    <       0.65461339 Ry

     iteration # 79     ecut=    80.00 Ry     beta= 0.40
     Davidson diagonalization with overlap
     ethr =  6.43E-04,  avg # of iterations =  2.0

     negative rho (up, down):  1.063E-02 0.000E+00

     total cpu time spent up to now is      373.9 secs

     total energy              =    -831.66926196 Ry
     Harris-Foulkes estimate   =    -831.63483315 Ry
     estimated scf accuracy    <       0.26815546 Ry

     iteration # 80     ecut=    80.00 Ry     beta= 0.40
     Davidson diagonalization with overlap
     ethr =  6.43E-04,  avg # of iterations =  1.0

     negative rho (up, down):  1.459E-02 0.000E+00

     total cpu time spent up to now is      378.2 secs

     total energy              =    -831.69276385 Ry
     Harris-Foulkes estimate   =    -831.66959688 Ry
     estimated scf accuracy    <       0.31947180 Ry

     iteration # 81     ecut=    80.00 Ry     beta= 0.40
     Davidson diagonalization with overlap
     ethr =  6.43E-04,  avg # of iterations =  1.0

     negative rho (up, down):  1.140E-03 0.000E+00

     total cpu time spent up to now is      382.6 secs

     total energy              =    -831.41473763 Ry
     Harris-Foulkes estimate   =    -831.69288574 Ry
     estimated scf accuracy    <       0.35261432 Ry

     iteration # 82     ecut=    80.00 Ry     beta= 0.40
     Davidson diagonalization with overlap
     ethr =  6.43E-04,  avg # of iterations =  2.0

     negative rho (up, down):  4.155E-03 0.000E+00

     total cpu time spent up to now is      387.9 secs

     total energy              =    -831.53308466 Ry
     Harris-Foulkes estimate   =    -833.42589944 Ry
     estimated scf accuracy    <       8.34784633 Ry

     iteration # 83     ecut=    80.00 Ry     beta= 0.40
     Davidson diagonalization with overlap
     ethr =  6.43E-04,  avg # of iterations =  2.0

     negative rho (up, down):  4.329E-03 0.000E+00

     total cpu time spent up to now is      392.9 secs

     total energy              =    -831.61920778 Ry
     Harris-Foulkes estimate   =    -831.61894573 Ry
     estimated scf accuracy    <       0.34384225 Ry

     iteration # 84     ecut=    80.00 Ry     beta= 0.40
     Davidson diagonalization with overlap
     ethr =  6.43E-04,  avg # of iterations =  1.0

     negative rho (up, down):  3.049E-03 0.000E+00

     total cpu time spent up to now is      397.3 secs

     total energy              =    -831.59678614 Ry
     Harris-Foulkes estimate   =    -831.61937593 Ry
     estimated scf accuracy    <       0.33937491 Ry

     iteration # 85     ecut=    80.00 Ry     beta= 0.40
     Davidson diagonalization with overlap
     ethr =  6.43E-04,  avg # of iterations =  1.0

     negative rho (up, down):  2.878E-02 0.000E+00

     total cpu time spent up to now is      401.6 secs

     total energy              =    -830.95769311 Ry
     Harris-Foulkes estimate   =    -831.64901180 Ry
     estimated scf accuracy    <       6.16222442 Ry

     iteration # 86     ecut=    80.00 Ry     beta= 0.40
     Davidson diagonalization with overlap
     ethr =  6.43E-04,  avg # of iterations =  2.0

     negative rho (up, down):  2.789E-02 0.000E+00

     total cpu time spent up to now is      406.2 secs

     total energy              =    -831.75871166 Ry
     Harris-Foulkes estimate   =    -831.76460165 Ry
     estimated scf accuracy    <       0.46176111 Ry

     iteration # 87     ecut=    80.00 Ry     beta= 0.40
     Davidson diagonalization with overlap
     ethr =  6.43E-04,  avg # of iterations =  1.0

     negative rho (up, down):  1.097E-02 0.000E+00

     total cpu time spent up to now is      410.7 secs

     total energy              =    -831.67477013 Ry
     Harris-Foulkes estimate   =    -831.75875812 Ry
     estimated scf accuracy    <       0.45344281 Ry

     iteration # 88     ecut=    80.00 Ry     beta= 0.40
     Davidson diagonalization with overlap
     ethr =  6.43E-04,  avg # of iterations =  1.0

     negative rho (up, down):  3.844E-02 0.000E+00

     total cpu time spent up to now is      415.1 secs

     total energy              =    -831.80641754 Ry
     Harris-Foulkes estimate   =    -831.67585220 Ry
     estimated scf accuracy    <       0.33023097 Ry

     iteration # 89     ecut=    80.00 Ry     beta= 0.40
     Davidson diagonalization with overlap
     ethr =  6.43E-04,  avg # of iterations =  2.0

     negative rho (up, down):  1.435E-02 0.000E+00

     total cpu time spent up to now is      419.8 secs

     total energy              =    -831.68761497 Ry
     Harris-Foulkes estimate   =    -831.80898469 Ry
     estimated scf accuracy    <       0.52836417 Ry

     iteration # 90     ecut=    80.00 Ry     beta= 0.40
     Davidson diagonalization with overlap
     ethr =  6.43E-04,  avg # of iterations =  2.0

     negative rho (up, down):  2.173E-03 0.000E+00

     total cpu time spent up to now is      424.4 secs

     total energy              =    -831.59071479 Ry
     Harris-Foulkes estimate   =    -831.68962019 Ry
     estimated scf accuracy    <       0.35064474 Ry

     iteration # 91     ecut=    80.00 Ry     beta= 0.40
     Davidson diagonalization with overlap
     ethr =  6.43E-04,  avg # of iterations =  2.0

     negative rho (up, down):  3.389E-03 0.000E+00

     total cpu time spent up to now is      429.0 secs

     total energy              =    -831.55468849 Ry
     Harris-Foulkes estimate   =    -831.69254178 Ry
     estimated scf accuracy    <       5.94508982 Ry

     iteration # 92     ecut=    80.00 Ry     beta= 0.40
     Davidson diagonalization with overlap
     ethr =  6.43E-04,  avg # of iterations =  1.0

     negative rho (up, down):  1.718E-02 0.000E+00

     total cpu time spent up to now is      433.2 secs

     total energy              =    -831.72065500 Ry
     Harris-Foulkes estimate   =    -831.61918410 Ry
     estimated scf accuracy    <       0.34482943 Ry

     iteration # 93     ecut=    80.00 Ry     beta= 0.40
     Davidson diagonalization with overlap
     ethr =  6.43E-04,  avg # of iterations =  2.0

     negative rho (up, down):  1.126E-02 0.000E+00

     total cpu time spent up to now is      438.0 secs

     total energy              =    -831.67564378 Ry
     Harris-Foulkes estimate   =    -831.70801845 Ry
     estimated scf accuracy    <       0.37720451 Ry

     iteration # 94     ecut=    80.00 Ry     beta= 0.40
     Davidson diagonalization with overlap
     ethr =  6.43E-04,  avg # of iterations =  1.0

     negative rho (up, down):  8.814E-03 0.000E+00

     total cpu time spent up to now is      442.5 secs

     total energy              =    -831.66177959 Ry
     Harris-Foulkes estimate   =    -831.67582594 Ry
     estimated scf accuracy    <       0.33001224 Ry

     iteration # 95     ecut=    80.00 Ry     beta= 0.40
     Davidson diagonalization with overlap
     ethr =  6.43E-04,  avg # of iterations =  1.0

     negative rho (up, down):  6.299E-03 0.000E+00

     total cpu time spent up to now is      446.9 secs

     total energy              =    -831.64630817 Ry
     Harris-Foulkes estimate   =    -831.66183432 Ry
     estimated scf accuracy    <       0.30890582 Ry

     iteration # 96     ecut=    80.00 Ry     beta= 0.40
     Davidson diagonalization with overlap
     ethr =  6.43E-04,  avg # of iterations =  1.0

     negative rho (up, down):  1.344E-02 0.000E+00

     total cpu time spent up to now is      451.2 secs

     total energy              =    -831.68704539 Ry
     Harris-Foulkes estimate   =    -831.64637420 Ry
     estimated scf accuracy    <       0.28598660 Ry

     iteration # 97     ecut=    80.00 Ry     beta= 0.40
     Davidson diagonalization with overlap
     ethr =  6.43E-04,  avg # of iterations =  1.0

     negative rho (up, down):  4.894E-02 0.000E+00

     total cpu time spent up to now is      455.5 secs

     total energy              =    -831.84224037 Ry
     Harris-Foulkes estimate   =    -831.68728977 Ry
     estimated scf accuracy    <       0.34435641 Ry

     iteration # 98     ecut=    80.00 Ry     beta= 0.40
     Davidson diagonalization with overlap
     ethr =  6.43E-04,  avg # of iterations =  2.0

     negative rho (up, down):  3.891E-02 0.000E+00

     total cpu time spent up to now is      460.3 secs

     total energy              =    -831.80620469 Ry
     Harris-Foulkes estimate   =    -831.84625429 Ry
     estimated scf accuracy    <       0.58429388 Ry

     iteration # 99     ecut=    80.00 Ry     beta= 0.40
     Davidson diagonalization with overlap
     ethr =  6.43E-04,  avg # of iterations =  1.0

     negative rho (up, down):  3.147E-02 0.000E+00

     total cpu time spent up to now is      464.6 secs

     total energy              =    -831.77032977 Ry
     Harris-Foulkes estimate   =    -831.80640375 Ry
     estimated scf accuracy    <       0.52583284 Ry

     iteration #100     ecut=    80.00 Ry     beta= 0.40
     Davidson diagonalization with overlap
     ethr =  6.43E-04,  avg # of iterations =  1.0

     negative rho (up, down):  1.601E-03 0.000E+00

     total cpu time spent up to now is      469.0 secs

     total energy              =    -831.56976066 Ry
     Harris-Foulkes estimate   =    -831.77052612 Ry
     estimated scf accuracy    <       0.47188117 Ry

     iteration #101     ecut=    80.00 Ry     beta= 0.40
     Davidson diagonalization with overlap
     ethr =  6.43E-04,  avg # of iterations =  2.0

     negative rho (up, down):  8.130E-02 0.000E+00

     total cpu time spent up to now is      473.7 secs

     total energy              =    -830.41251240 Ry
     Harris-Foulkes estimate   =    -831.77834174 Ry
     estimated scf accuracy    <       6.03142572 Ry

     iteration #102     ecut=    80.00 Ry     beta= 0.40
     Davidson diagonalization with overlap
     ethr =  6.43E-04,  avg # of iterations =  2.0

     negative rho (up, down):  3.529E-02 0.000E+00

     total cpu time spent up to now is      478.8 secs

     total energy              =    -831.78420472 Ry
     Harris-Foulkes estimate   =    -831.96449282 Ry
     estimated scf accuracy    <       0.76012415 Ry

     iteration #103     ecut=    80.00 Ry     beta= 0.40
     Davidson diagonalization with overlap
     ethr =  6.43E-04,  avg # of iterations =  2.0

     negative rho (up, down):  1.589E-02 0.000E+00

     total cpu time spent up to now is      483.4 secs

     total energy              =    -831.70079055 Ry
     Harris-Foulkes estimate   =    -831.78723332 Ry
     estimated scf accuracy    <       0.49817614 Ry

     iteration #104     ecut=    80.00 Ry     beta= 0.40
     Davidson diagonalization with overlap
     ethr =  6.43E-04,  avg # of iterations =  1.0

     negative rho (up, down):  1.004E-02 0.000E+00

     total cpu time spent up to now is      487.6 secs

     total energy              =    -831.66671060 Ry
     Harris-Foulkes estimate   =    -831.70208146 Ry
     estimated scf accuracy    <       0.36875586 Ry

     iteration #105     ecut=    80.00 Ry     beta= 0.40
     Davidson diagonalization with overlap
     ethr =  6.43E-04,  avg # of iterations =  1.0

     negative rho (up, down):  1.348E-02 0.000E+00

     total cpu time spent up to now is      491.9 secs

     total energy              =    -831.68895441 Ry
     Harris-Foulkes estimate   =    -831.66691417 Ry
     estimated scf accuracy    <       0.31859119 Ry

     iteration #106     ecut=    80.00 Ry     beta= 0.40
     Davidson diagonalization with overlap
     ethr =  6.43E-04,  avg # of iterations =  1.0

     negative rho (up, down):  1.914E-02 0.000E+00

     total cpu time spent up to now is      496.4 secs

     total energy              =    -831.71753327 Ry
     Harris-Foulkes estimate   =    -831.68900224 Ry
     estimated scf accuracy    <       0.34707856 Ry

     iteration #107     ecut=    80.00 Ry     beta= 0.40
     Davidson diagonalization with overlap
     ethr =  6.43E-04,  avg # of iterations =  1.0

     negative rho (up, down):  1.902E-02 0.000E+00

     total cpu time spent up to now is      500.8 secs

     total energy              =    -831.71487491 Ry
     Harris-Foulkes estimate   =    -831.71775597 Ry
     estimated scf accuracy    <       0.39136823 Ry

     iteration #108     ecut=    80.00 Ry     beta= 0.40
     Davidson diagonalization with overlap
     ethr =  6.43E-04,  avg # of iterations =  1.0

     negative rho (up, down):  2.307E-02 0.000E+00

     total cpu time spent up to now is      505.1 secs

     total energy              =    -831.73199345 Ry
     Harris-Foulkes estimate   =    -831.71488443 Ry
     estimated scf accuracy    <       0.38764815 Ry

     iteration #109     ecut=    80.00 Ry     beta= 0.40
     Davidson diagonalization with overlap
     ethr =  6.43E-04,  avg # of iterations =  1.0

     negative rho (up, down):  2.428E-02 0.000E+00

     total cpu time spent up to now is      509.5 secs

     total energy              =    -831.73790997 Ry
     Harris-Foulkes estimate   =    -831.73204519 Ry
     estimated scf accuracy    <       0.41351366 Ry

     iteration #110     ecut=    80.00 Ry     beta= 0.40
     Davidson diagonalization with overlap
     ethr =  6.43E-04,  avg # of iterations =  1.0

     negative rho (up, down):  1.140E-03 0.000E+00

     total cpu time spent up to now is      513.8 secs

     total energy              =    -831.40619896 Ry
     Harris-Foulkes estimate   =    -831.73791472 Ry
     estimated scf accuracy    <       0.42175854 Ry

     iteration #111     ecut=    80.00 Ry     beta= 0.40
     Davidson diagonalization with overlap
     ethr =  6.43E-04,  avg # of iterations =  2.0

     negative rho (up, down):  1.120E-03 0.000E+00

     total cpu time spent up to now is      518.9 secs

     total energy              =    -832.57290058 Ry
     Harris-Foulkes estimate   =    -833.39050380 Ry
     estimated scf accuracy    <       8.30461989 Ry

     iteration #112     ecut=    80.00 Ry     beta= 0.40
     Davidson diagonalization with overlap
     ethr =  6.43E-04,  avg # of iterations =  1.0

     negative rho (up, down):  6.226E-03 0.000E+00

     total cpu time spent up to now is      523.0 secs

     total energy              =    -831.43221903 Ry
     Harris-Foulkes estimate   =    -832.57590497 Ry
     estimated scf accuracy    <       7.19932826 Ry

     iteration #113     ecut=    80.00 Ry     beta= 0.40
     Davidson diagonalization with overlap
     ethr =  6.43E-04,  avg # of iterations =  2.6

     negative rho (up, down):  6.485E-03 0.000E+00

     total cpu time spent up to now is      528.2 secs

     total energy              =    -831.64640770 Ry
     Harris-Foulkes estimate   =    -831.64334524 Ry
     estimated scf accuracy    <       0.28023191 Ry

     iteration #114     ecut=    80.00 Ry     beta= 0.40
     Davidson diagonalization with overlap
     ethr =  6.43E-04,  avg # of iterations =  1.0

     negative rho (up, down):  1.863E-02 0.000E+00

     total cpu time spent up to now is      532.6 secs

     total energy              =    -831.71696084 Ry
     Harris-Foulkes estimate   =    -831.64645340 Ry
     estimated scf accuracy    <       0.28432389 Ry

     iteration #115     ecut=    80.00 Ry     beta= 0.40
     Davidson diagonalization with overlap
     ethr =  6.43E-04,  avg # of iterations =  1.0

     negative rho (up, down):  1.885E-02 0.000E+00

     total cpu time spent up to now is      537.0 secs

     total energy              =    -831.72120545 Ry
     Harris-Foulkes estimate   =    -831.71801630 Ry
     estimated scf accuracy    <       0.39186022 Ry

     iteration #116     ecut=    80.00 Ry     beta= 0.40
     Davidson diagonalization with overlap
     ethr =  6.43E-04,  avg # of iterations =  1.0

     negative rho (up, down):  1.591E-02 0.000E+00

     total cpu time spent up to now is      541.4 secs

     total energy              =    -831.70845200 Ry
     Harris-Foulkes estimate   =    -831.72123007 Ry
     estimated scf accuracy    <       0.39623624 Ry

     iteration #117     ecut=    80.00 Ry     beta= 0.40
     Davidson diagonalization with overlap
     ethr =  6.43E-04,  avg # of iterations =  1.0

     negative rho (up, down):  2.030E-03 0.000E+00

     total cpu time spent up to now is      545.7 secs

     total energy              =    -831.58753751 Ry
     Harris-Foulkes estimate   =    -831.70847164 Ry
     estimated scf accuracy    <       0.37812192 Ry

     iteration #118     ecut=    80.00 Ry     beta= 0.40
     Davidson diagonalization with overlap
     ethr =  6.43E-04,  avg # of iterations =  2.0

     negative rho (up, down):  1.912E-02 0.000E+00

     total cpu time spent up to now is      550.4 secs

     total energy              =    -831.16091311 Ry
     Harris-Foulkes estimate   =    -831.70540993 Ry
     estimated scf accuracy    <       5.92657437 Ry

     iteration #119     ecut=    80.00 Ry     beta= 0.40
     Davidson diagonalization with overlap
     ethr =  6.43E-04,  avg # of iterations =  2.0

     negative rho (up, down):  1.983E-03 0.000E+00

     total cpu time spent up to now is      555.3 secs

     total energy              =    -831.58690305 Ry
     Harris-Foulkes estimate   =    -831.71215815 Ry
     estimated scf accuracy    <       0.38298899 Ry

     iteration #120     ecut=    80.00 Ry     beta= 0.40
     Davidson diagonalization with overlap
     ethr =  6.43E-04,  avg # of iterations =  2.0

     negative rho (up, down):  2.568E-03 0.000E+00

     total cpu time spent up to now is      559.9 secs

     total energy              =    -831.63741819 Ry
     Harris-Foulkes estimate   =    -831.70844254 Ry
     estimated scf accuracy    <       5.92616049 Ry

     iteration #121     ecut=    80.00 Ry     beta= 0.40
     Davidson diagonalization with overlap
     ethr =  6.43E-04,  avg # of iterations =  1.0

     negative rho (up, down):  4.998E-03 0.000E+00

     total cpu time spent up to now is      564.2 secs

     total energy              =    -831.49654295 Ry
     Harris-Foulkes estimate   =    -831.63663469 Ry
     estimated scf accuracy    <       5.03328188 Ry

     iteration #122     ecut=    80.00 Ry     beta= 0.40
     Davidson diagonalization with overlap
     ethr =  6.43E-04,  avg # of iterations =  1.0

     negative rho (up, down):  3.865E-03 0.000E+00

     total cpu time spent up to now is      568.6 secs

     total energy              =    -831.62478278 Ry
     Harris-Foulkes estimate   =    -831.63398936 Ry
     estimated scf accuracy    <       0.26479679 Ry

     iteration #123     ecut=    80.00 Ry     beta= 0.40
     Davidson diagonalization with overlap
     ethr =  6.43E-04,  avg # of iterations =  1.0

     negative rho (up, down):  6.358E-03 0.000E+00

     total cpu time spent up to now is      572.9 secs

     total energy              =    -831.64379909 Ry
     Harris-Foulkes estimate   =    -831.62476685 Ry
     estimated scf accuracy    <       0.26734696 Ry

     iteration #124     ecut=    80.00 Ry     beta= 0.40
     Davidson diagonalization with overlap
     ethr =  6.43E-04,  avg # of iterations =  1.0

     negative rho (up, down):  5.223E-03 0.000E+00

     total cpu time spent up to now is      577.1 secs

     total energy              =    -831.63773810 Ry
     Harris-Foulkes estimate   =    -831.64339384 Ry
     estimated scf accuracy    <       0.28009822 Ry

     iteration #125     ecut=    80.00 Ry     beta= 0.40
     Davidson diagonalization with overlap
     ethr =  6.43E-04,  avg # of iterations =  1.0

     negative rho (up, down):  1.813E-02 0.000E+00

     total cpu time spent up to now is      581.5 secs

     total energy              =    -831.70790121 Ry
     Harris-Foulkes estimate   =    -831.63774580 Ry
     estimated scf accuracy    <       0.27196926 Ry

     iteration #126     ecut=    80.00 Ry     beta= 0.40
     Davidson diagonalization with overlap
     ethr =  6.43E-04,  avg # of iterations =  1.0

     negative rho (up, down):  1.893E-02 0.000E+00

     total cpu time spent up to now is      585.7 secs

     total energy              =    -831.71372640 Ry
     Harris-Foulkes estimate   =    -831.70889326 Ry
     estimated scf accuracy    <       0.37837703 Ry

     iteration #127     ecut=    80.00 Ry     beta= 0.40
     Davidson diagonalization with overlap
     ethr =  6.43E-04,  avg # of iterations =  1.0

     negative rho (up, down):  1.942E-02 0.000E+00

     total cpu time spent up to now is      590.1 secs

     total energy              =    -831.71394540 Ry
     Harris-Foulkes estimate   =    -831.71374680 Ry
     estimated scf accuracy    <       0.38508807 Ry

     iteration #128     ecut=    80.00 Ry     beta= 0.40
     Davidson diagonalization with overlap
     ethr =  6.43E-04,  avg # of iterations =  1.0

     negative rho (up, down):  1.275E-02 0.000E+00

     total cpu time spent up to now is      594.3 secs

     total energy              =    -831.68260005 Ry
     Harris-Foulkes estimate   =    -831.71395123 Ry
     estimated scf accuracy    <       0.38584529 Ry

     iteration #129     ecut=    80.00 Ry     beta= 0.40
     Davidson diagonalization with overlap
     ethr =  6.43E-04,  avg # of iterations =  1.0

     negative rho (up, down):  8.052E-03 0.000E+00

     total cpu time spent up to now is      598.8 secs

     total energy              =    -831.65623487 Ry
     Harris-Foulkes estimate   =    -831.68275008 Ry
     estimated scf accuracy    <       0.33994807 Ry

     iteration #130     ecut=    80.00 Ry     beta= 0.40
     Davidson diagonalization with overlap
     ethr =  6.43E-04,  avg # of iterations =  1.0

     negative rho (up, down):  1.160E-03 0.000E+00

     total cpu time spent up to now is      603.1 secs

     total energy              =    -831.41607325 Ry
     Harris-Foulkes estimate   =    -831.65639003 Ry
     estimated scf accuracy    <       0.30061039 Ry

     iteration #131     ecut=    80.00 Ry     beta= 0.40
     Davidson diagonalization with overlap
     ethr =  6.43E-04,  avg # of iterations =  2.0

     negative rho (up, down):  2.975E-02 0.000E+00

     total cpu time spent up to now is      608.2 secs

     total energy              =    -830.99504583 Ry
     Harris-Foulkes estimate   =    -833.85697965 Ry
     estimated scf accuracy    <       8.92315228 Ry

     iteration #132     ecut=    80.00 Ry     beta= 0.40
     Davidson diagonalization with overlap
     ethr =  6.43E-04,  avg # of iterations =  2.2

     negative rho (up, down):  9.718E-03 0.000E+00

     total cpu time spent up to now is      613.7 secs

     total energy              =    -831.65159811 Ry
     Harris-Foulkes estimate   =    -831.74562127 Ry
     estimated scf accuracy    <       0.43443660 Ry

     iteration #133     ecut=    80.00 Ry     beta= 0.40
     Davidson diagonalization with overlap
     ethr =  6.43E-04,  avg # of iterations =  1.1

     negative rho (up, down):  3.140E-02 0.000E+00

     total cpu time spent up to now is      618.0 secs

     total energy              =    -831.74544635 Ry
     Harris-Foulkes estimate   =    -831.65319427 Ry
     estimated scf accuracy    <       0.29807960 Ry

     iteration #134     ecut=    80.00 Ry     beta= 0.40
     Davidson diagonalization with overlap
     ethr =  6.43E-04,  avg # of iterations =  1.0

     negative rho (up, down):  1.657E-02 0.000E+00

     total cpu time spent up to now is      622.2 secs

     total energy              =    -831.68736412 Ry
     Harris-Foulkes estimate   =    -831.74663324 Ry
     estimated scf accuracy    <       0.43123695 Ry

     iteration #135     ecut=    80.00 Ry     beta= 0.40
     Davidson diagonalization with overlap
     ethr =  6.43E-04,  avg # of iterations =  1.0

     negative rho (up, down):  1.097E-02 0.000E+00

     total cpu time spent up to now is      626.6 secs

     total energy              =    -831.65251119 Ry
     Harris-Foulkes estimate   =    -831.68771003 Ry
     estimated scf accuracy    <       0.35104049 Ry

     iteration #136     ecut=    80.00 Ry     beta= 0.40
     Davidson diagonalization with overlap
     ethr =  6.43E-04,  avg # of iterations =  1.0

     negative rho (up, down):  1.411E-02 0.000E+00

     total cpu time spent up to now is      631.1 secs

     total energy              =    -831.67489405 Ry
     Harris-Foulkes estimate   =    -831.65291770 Ry
     estimated scf accuracy    <       0.29821476 Ry

     iteration #137     ecut=    80.00 Ry     beta= 0.40
     Davidson diagonalization with overlap
     ethr =  6.43E-04,  avg # of iterations =  1.0

     negative rho (up, down):  3.524E-03 0.000E+00

     total cpu time spent up to now is      635.4 secs

     total energy              =    -831.60840917 Ry
     Harris-Foulkes estimate   =    -831.67495440 Ry
     estimated scf accuracy    <       0.32665927 Ry

     iteration #138     ecut=    80.00 Ry     beta= 0.40
     Davidson diagonalization with overlap
     ethr =  6.43E-04,  avg # of iterations =  1.0

     negative rho (up, down):  4.847E-03 0.000E+00

     total cpu time spent up to now is      639.6 secs

     total energy              =    -831.57845955 Ry
     Harris-Foulkes estimate   =    -831.61593739 Ry
     estimated scf accuracy    <       0.74852217 Ry

     iteration #139     ecut=    80.00 Ry     beta= 0.40
     Davidson diagonalization with overlap
     ethr =  6.43E-04,  avg # of iterations =  1.0

     negative rho (up, down):  3.380E-03 0.000E+00

     total cpu time spent up to now is      643.8 secs

     total energy              =    -831.60983808 Ry
     Harris-Foulkes estimate   =    -831.63071340 Ry
     estimated scf accuracy    <       0.26007094 Ry

     iteration #140     ecut=    80.00 Ry     beta= 0.40
     Davidson diagonalization with overlap
     ethr =  6.43E-04,  avg # of iterations =  1.0

     negative rho (up, down):  1.215E-02 0.000E+00

     total cpu time spent up to now is      648.2 secs

     total energy              =    -831.53065597 Ry
     Harris-Foulkes estimate   =    -831.61496663 Ry
     estimated scf accuracy    <       0.49153729 Ry

     iteration #141     ecut=    80.00 Ry     beta= 0.40
     Davidson diagonalization with overlap
     ethr =  6.43E-04,  avg # of iterations =  1.0

     negative rho (up, down):  5.652E-03 0.000E+00

     total cpu time spent up to now is      652.5 secs

     total energy              =    -831.63730809 Ry
     Harris-Foulkes estimate   =    -831.67570130 Ry
     estimated scf accuracy    <       0.32825903 Ry

     iteration #142     ecut=    80.00 Ry     beta= 0.40
     Davidson diagonalization with overlap
     ethr =  6.43E-04,  avg # of iterations =  1.0

     negative rho (up, down):  1.113E-03 0.000E+00

     total cpu time spent up to now is      656.8 secs

     total energy              =    -831.52299232 Ry
     Harris-Foulkes estimate   =    -831.63755052 Ry
     estimated scf accuracy    <       0.27467869 Ry

     iteration #143     ecut=    80.00 Ry     beta= 0.40
     Davidson diagonalization with overlap
     ethr =  6.43E-04,  avg # of iterations =  2.0

     negative rho (up, down):  1.116E-03 0.000E+00

     total cpu time spent up to now is      661.3 secs

     total energy              =    -832.20959688 Ry
     Harris-Foulkes estimate   =    -832.11528806 Ry
     estimated scf accuracy    <       6.53934380 Ry

     iteration #144     ecut=    80.00 Ry     beta= 0.40
     Davidson diagonalization with overlap
     ethr =  6.43E-04,  avg # of iterations =  1.0

     negative rho (up, down):  3.534E-03 0.000E+00

     total cpu time spent up to now is      665.6 secs

     total energy              =    -831.56215346 Ry
     Harris-Foulkes estimate   =    -832.20974085 Ry
     estimated scf accuracy    <       6.67715045 Ry

     iteration #145     ecut=    80.00 Ry     beta= 0.40
     Davidson diagonalization with overlap
     ethr =  6.43E-04,  avg # of iterations =  2.0

     negative rho (up, down):  2.602E-03 0.000E+00

     total cpu time spent up to now is      670.4 secs

     total energy              =    -831.59365851 Ry
     Harris-Foulkes estimate   =    -831.61636495 Ry
     estimated scf accuracy    <       0.33110366 Ry

     iteration #146     ecut=    80.00 Ry     beta= 0.40
     Davidson diagonalization with overlap
     ethr =  6.43E-04,  avg # of iterations =  1.0

     negative rho (up, down):  3.515E-03 0.000E+00

     total cpu time spent up to now is      674.8 secs

     total energy              =    -831.56502343 Ry
     Harris-Foulkes estimate   =    -831.66453446 Ry
     estimated scf accuracy    <       6.29423947 Ry

     iteration #147     ecut=    80.00 Ry     beta= 0.40
     Davidson diagonalization with overlap
     ethr =  6.43E-04,  avg # of iterations =  1.0

     negative rho (up, down):  3.496E-03 0.000E+00

     total cpu time spent up to now is      679.1 secs

     total energy              =    -831.61254197 Ry
     Harris-Foulkes estimate   =    -831.61582392 Ry
     estimated scf accuracy    <       0.30691015 Ry

     iteration #148     ecut=    80.00 Ry     beta= 0.40
     Davidson diagonalization with overlap
     ethr =  6.43E-04,  avg # of iterations =  1.0

     negative rho (up, down):  3.663E-03 0.000E+00

     total cpu time spent up to now is      683.4 secs

     total energy              =    -831.61482444 Ry
     Harris-Foulkes estimate   =    -831.61331422 Ry
     estimated scf accuracy    <       0.05809173 Ry

     iteration #149     ecut=    80.00 Ry     beta= 0.40
     Davidson diagonalization with overlap
     ethr =  6.43E-04,  avg # of iterations =  1.0

     negative rho (up, down):  5.795E-03 0.000E+00

     total cpu time spent up to now is      687.8 secs

     total energy              =    -831.63969788 Ry
     Harris-Foulkes estimate   =    -831.61605385 Ry
     estimated scf accuracy    <       0.31786077 Ry

     iteration #150     ecut=    80.00 Ry     beta= 0.40
     Davidson diagonalization with overlap
     ethr =  6.43E-04,  avg # of iterations =  1.0

     negative rho (up, down):  9.417E-03 0.000E+00

     total cpu time spent up to now is      692.1 secs

     total energy              =    -831.66106736 Ry
     Harris-Foulkes estimate   =    -831.63783110 Ry
     estimated scf accuracy    <       0.27147858 Ry

     iteration #151     ecut=    80.00 Ry     beta= 0.40
     Davidson diagonalization with overlap
     ethr =  6.43E-04,  avg # of iterations =  1.0

     negative rho (up, down):  2.365E-02 0.000E+00

     total cpu time spent up to now is      696.4 secs

     total energy              =    -831.73685382 Ry
     Harris-Foulkes estimate   =    -831.66119893 Ry
     estimated scf accuracy    <       0.30673471 Ry

     iteration #152     ecut=    80.00 Ry     beta= 0.40
     Davidson diagonalization with overlap
     ethr =  6.43E-04,  avg # of iterations =  1.0

     negative rho (up, down):  2.590E-02 0.000E+00

     total cpu time spent up to now is      700.7 secs

     total energy              =    -831.74842298 Ry
     Harris-Foulkes estimate   =    -831.73790735 Ry
     estimated scf accuracy    <       0.42093241 Ry

     iteration #153     ecut=    80.00 Ry     beta= 0.40
     Davidson diagonalization with overlap
     ethr =  6.43E-04,  avg # of iterations =  1.0

     negative rho (up, down):  2.096E-02 0.000E+00

     total cpu time spent up to now is      705.1 secs

     total energy              =    -831.72528122 Ry
     Harris-Foulkes estimate   =    -831.74849705 Ry
     estimated scf accuracy    <       0.43553207 Ry

     iteration #154     ecut=    80.00 Ry     beta= 0.40
     Davidson diagonalization with overlap
     ethr =  6.43E-04,  avg # of iterations =  1.0

     negative rho (up, down):  1.374E-02 0.000E+00

     total cpu time spent up to now is      709.5 secs

     total energy              =    -831.68840447 Ry
     Harris-Foulkes estimate   =    -831.72530854 Ry
     estimated scf accuracy    <       0.40429355 Ry

     iteration #155     ecut=    80.00 Ry     beta= 0.40
     Davidson diagonalization with overlap
     ethr =  6.43E-04,  avg # of iterations =  1.0

     negative rho (up, down):  2.972E-02 0.000E+00

     total cpu time spent up to now is      713.8 secs

     total energy              =    -831.76481159 Ry
     Harris-Foulkes estimate   =    -831.68866911 Ry
     estimated scf accuracy    <       0.34914745 Ry

     iteration #156     ecut=    80.00 Ry     beta= 0.40
     Davidson diagonalization with overlap
     ethr =  6.43E-04,  avg # of iterations =  1.0

     negative rho (up, down):  8.216E-03 0.000E+00

     total cpu time spent up to now is      718.3 secs

     total energy              =    -831.65446910 Ry
     Harris-Foulkes estimate   =    -831.76563258 Ry
     estimated scf accuracy    <       0.46168000 Ry

     iteration #157     ecut=    80.00 Ry     beta= 0.40
     Davidson diagonalization with overlap
     ethr =  6.43E-04,  avg # of iterations =  1.0

     negative rho (up, down):  1.631E-02 0.000E+00

     total cpu time spent up to now is      722.7 secs

     total energy              =    -831.70009455 Ry
     Harris-Foulkes estimate   =    -831.65606154 Ry
     estimated scf accuracy    <       0.30415655 Ry

     iteration #158     ecut=    80.00 Ry     beta= 0.40
     Davidson diagonalization with overlap
     ethr =  6.43E-04,  avg # of iterations =  1.0

     negative rho (up, down):  1.140E-03 0.000E+00

     total cpu time spent up to now is      726.9 secs

     total energy              =    -831.41474304 Ry
     Harris-Foulkes estimate   =    -831.70035022 Ry
     estimated scf accuracy    <       0.36219504 Ry

     iteration #159     ecut=    80.00 Ry     beta= 0.40
     Davidson diagonalization with overlap
     ethr =  6.43E-04,  avg # of iterations =  2.0

     negative rho (up, down):  1.124E-03 0.000E+00

     total cpu time spent up to now is      732.0 secs

     total energy              =    -832.71579614 Ry
     Harris-Foulkes estimate   =    -833.41721553 Ry
     estimated scf accuracy    <       8.33684165 Ry

     iteration #160     ecut=    80.00 Ry     beta= 0.40
     Davidson diagonalization with overlap
     ethr =  6.43E-04,  avg # of iterations =  1.0

     negative rho (up, down):  3.388E-02 0.000E+00

     total cpu time spent up to now is      736.4 secs

     total energy              =    -830.88930032 Ry
     Harris-Foulkes estimate   =    -832.71792592 Ry
     estimated scf accuracy    <       7.39536839 Ry

     iteration #161     ecut=    80.00 Ry     beta= 0.40
     Davidson diagonalization with overlap
     ethr =  6.43E-04,  avg # of iterations =  2.1

     negative rho (up, down):  3.066E-03 0.000E+00

     total cpu time spent up to now is      741.6 secs

     total energy              =    -831.59989223 Ry
     Harris-Foulkes estimate   =    -831.78367992 Ry
     estimated scf accuracy    <       0.49122862 Ry

     iteration #162     ecut=    80.00 Ry     beta= 0.40
     Davidson diagonalization with overlap
     ethr =  6.43E-04,  avg # of iterations =  2.0

     negative rho (up, down):  9.401E-03 0.000E+00

     total cpu time spent up to now is      746.3 secs

     total energy              =    -831.43910023 Ry
     Harris-Foulkes estimate   =    -831.62490309 Ry
     estimated scf accuracy    <       2.94097084 Ry

     iteration #163     ecut=    80.00 Ry     beta= 0.40
     Davidson diagonalization with overlap
     ethr =  6.43E-04,  avg # of iterations =  1.0

     negative rho (up, down):  1.106E-03 0.000E+00

     total cpu time spent up to now is      750.7 secs

     total energy              =    -831.55861775 Ry
     Harris-Foulkes estimate   =    -831.66215536 Ry
     estimated scf accuracy    <       0.30746281 Ry

     iteration #164     ecut=    80.00 Ry     beta= 0.40
     Davidson diagonalization with overlap
     ethr =  6.43E-04,  avg # of iterations =  2.0

     negative rho (up, down):  1.239E-02 0.000E+00

     total cpu time spent up to now is      755.2 secs

     total energy              =    -831.28221062 Ry
     Harris-Foulkes estimate   =    -831.87952886 Ry
     estimated scf accuracy    <       6.18498546 Ry

     iteration #165     ecut=    80.00 Ry     beta= 0.40
     Davidson diagonalization with overlap
     ethr =  6.43E-04,  avg # of iterations =  2.0

     negative rho (up, down):  6.271E-03 0.000E+00

     total cpu time spent up to now is      759.8 secs

     total energy              =    -831.64389978 Ry
     Harris-Foulkes estimate   =    -831.68050059 Ry
     estimated scf accuracy    <       0.33570496 Ry

     iteration #166     ecut=    80.00 Ry     beta= 0.40
     Davidson diagonalization with overlap
     ethr =  6.43E-04,  avg # of iterations =  1.0

     negative rho (up, down):  1.332E-02 0.000E+00

     total cpu time spent up to now is      764.0 secs

     total energy              =    -831.68527805 Ry
     Harris-Foulkes estimate   =    -831.64417336 Ry
     estimated scf accuracy    <       0.28271092 Ry

     iteration #167     ecut=    80.00 Ry     beta= 0.40
     Davidson diagonalization with overlap
     ethr =  6.43E-04,  avg # of iterations =  1.0

     negative rho (up, down):  2.061E-02 0.000E+00

     total cpu time spent up to now is      768.3 secs

     total energy              =    -831.72431939 Ry
     Harris-Foulkes estimate   =    -831.68552709 Ry
     estimated scf accuracy    <       0.34101458 Ry

     iteration #168     ecut=    80.00 Ry     beta= 0.40
     Davidson diagonalization with overlap
     ethr =  6.43E-04,  avg # of iterations =  1.0

     negative rho (up, down):  1.414E-02 0.000E+00

     total cpu time spent up to now is      772.8 secs

     total energy              =    -831.69451536 Ry
     Harris-Foulkes estimate   =    -831.72470740 Ry
     estimated scf accuracy    <       0.39888480 Ry

     iteration #169     ecut=    80.00 Ry     beta= 0.40
     Davidson diagonalization with overlap
     ethr =  6.43E-04,  avg # of iterations =  1.0

     negative rho (up, down):  1.110E-02 0.000E+00

     total cpu time spent up to now is      777.1 secs

     total energy              =    -831.67530627 Ry
     Harris-Foulkes estimate   =    -831.69461191 Ry
     estimated scf accuracy    <       0.35917426 Ry

     iteration #170     ecut=    80.00 Ry     beta= 0.40
     Davidson diagonalization with overlap
     ethr =  6.43E-04,  avg # of iterations =  1.0

     negative rho (up, down):  9.337E-03 0.000E+00

     total cpu time spent up to now is      781.3 secs

     total energy              =    -831.66432543 Ry
     Harris-Foulkes estimate   =    -831.67542475 Ry
     estimated scf accuracy    <       0.32952688 Ry

     iteration #171     ecut=    80.00 Ry     beta= 0.40
     Davidson diagonalization with overlap
     ethr =  6.43E-04,  avg # of iterations =  1.0

     negative rho (up, down):  2.165E-03 0.000E+00

     total cpu time spent up to now is      785.5 secs

     total energy              =    -831.58883159 Ry
     Harris-Foulkes estimate   =    -831.66435694 Ry
     estimated scf accuracy    <       0.31344929 Ry

     iteration #172     ecut=    80.00 Ry     beta= 0.40
     Davidson diagonalization with overlap
     ethr =  6.43E-04,  avg # of iterations =  1.9

     negative rho (up, down):  9.433E-03 0.000E+00

     total cpu time spent up to now is      790.1 secs

     total energy              =    -831.33970026 Ry
     Harris-Foulkes estimate   =    -831.70733410 Ry
     estimated scf accuracy    <       5.92823549 Ry

     iteration #173     ecut=    80.00 Ry     beta= 0.40
     Davidson diagonalization with overlap
     ethr =  6.43E-04,  avg # of iterations =  1.2

     negative rho (up, down):  5.268E-03 0.000E+00

     total cpu time spent up to now is      794.6 secs

     total energy              =    -831.63763842 Ry
     Harris-Foulkes estimate   =    -831.66715703 Ry
     estimated scf accuracy    <       0.31530769 Ry

     iteration #174     ecut=    80.00 Ry     beta= 0.40
     Davidson diagonalization with overlap
     ethr =  6.43E-04,  avg # of iterations =  1.0

     negative rho (up, down):  5.842E-03 0.000E+00

     total cpu time spent up to now is      799.0 secs

     total energy              =    -831.64194248 Ry
     Harris-Foulkes estimate   =    -831.63781899 Ry
     estimated scf accuracy    <       0.27304826 Ry

     iteration #175     ecut=    80.00 Ry     beta= 0.40
     Davidson diagonalization with overlap
     ethr =  6.43E-04,  avg # of iterations =  1.0

     negative rho (up, down):  1.107E-03 0.000E+00

     total cpu time spent up to now is      803.2 secs

     total energy              =    -831.55324926 Ry
     Harris-Foulkes estimate   =    -831.64195276 Ry
     estimated scf accuracy    <       0.27816357 Ry

     iteration #176     ecut=    80.00 Ry     beta= 0.40
     Davidson diagonalization with overlap
     ethr =  6.43E-04,  avg # of iterations =  2.0

     negative rho (up, down):  3.042E-03 0.000E+00

     total cpu time spent up to now is      807.8 secs

     total energy              =    -831.60440953 Ry
     Harris-Foulkes estimate   =    -831.91667940 Ry
     estimated scf accuracy    <       6.24322563 Ry

     iteration #177     ecut=    80.00 Ry     beta= 0.40
     Davidson diagonalization with overlap
[...]
     Davidson diagonalization with overlap
     ethr =  2.24E-05,  avg # of iterations =  3.0

     negative rho (up, down):  7.988E-03 0.000E+00

     total cpu time spent up to now is     1662.1 secs

     total energy              =    -831.65437040 Ry
     Harris-Foulkes estimate   =    -831.66142993 Ry
     estimated scf accuracy    <       0.30784065 Ry

     iteration #362     ecut=    80.00 Ry     beta= 0.40
     Davidson diagonalization with overlap
     ethr =  2.24E-05,  avg # of iterations =  1.0

     negative rho (up, down):  6.661E-03 0.000E+00

     total cpu time spent up to now is     1666.3 secs

     total energy              =    -831.64544052 Ry
     Harris-Foulkes estimate   =    -831.65438760 Ry
     estimated scf accuracy    <       0.29731062 Ry

     iteration #363     ecut=    80.00 Ry     beta= 0.40
     Davidson diagonalization with overlap
     ethr =  2.24E-05,  avg # of iterations =  1.0

     negative rho (up, down):  1.123E-03 0.000E+00

     total cpu time spent up to now is     1670.6 secs

     total energy              =    -831.43012931 Ry
     Harris-Foulkes estimate   =    -831.64546743 Ry
     estimated scf accuracy    <       0.28362336 Ry

     iteration #364     ecut=    80.00 Ry     beta= 0.40
     Davidson diagonalization with overlap
     ethr =  2.24E-05,  avg # of iterations =  3.0

     negative rho (up, down):  1.116E-03 0.000E+00

     total cpu time spent up to now is     1676.8 secs

     total energy              =    -832.31243773 Ry
     Harris-Foulkes estimate   =    -833.17677556 Ry
     estimated scf accuracy    <       8.01721909 Ry

     iteration #365     ecut=    80.00 Ry     beta= 0.40
     Davidson diagonalization with overlap
     ethr =  2.24E-05,  avg # of iterations =  2.0

     negative rho (up, down):  3.098E-03 0.000E+00

     total cpu time spent up to now is     1682.2 secs

     total energy              =    -831.59525801 Ry
     Harris-Foulkes estimate   =    -832.31638026 Ry
     estimated scf accuracy    <       6.83024042 Ry

     iteration #366     ecut=    80.00 Ry     beta= 0.40
     Davidson diagonalization with overlap
     ethr =  2.24E-05,  avg # of iterations =  3.0

     negative rho (up, down):  1.494E-02 0.000E+00

     total cpu time spent up to now is     1687.7 secs

     total energy              =    -831.53775032 Ry
     Harris-Foulkes estimate   =    -831.61417162 Ry
     estimated scf accuracy    <       0.26601564 Ry

     iteration #367     ecut=    80.00 Ry     beta= 0.40
     Davidson diagonalization with overlap
     ethr =  2.24E-05,  avg # of iterations =  2.0

     negative rho (up, down):  1.154E-02 0.000E+00

     total cpu time spent up to now is     1692.8 secs

     total energy              =    -831.67767356 Ry
     Harris-Foulkes estimate   =    -831.69754195 Ry
     estimated scf accuracy    <       0.36164547 Ry

     iteration #368     ecut=    80.00 Ry     beta= 0.40
     Davidson diagonalization with overlap
     ethr =  2.24E-05,  avg # of iterations =  2.0

     negative rho (up, down):  5.812E-03 0.000E+00

     total cpu time spent up to now is     1697.6 secs

     total energy              =    -831.64290129 Ry
     Harris-Foulkes estimate   =    -831.67774355 Ry
     estimated scf accuracy    <       0.33248888 Ry

     iteration #369     ecut=    80.00 Ry     beta= 0.40
     Davidson diagonalization with overlap
     ethr =  2.24E-05,  avg # of iterations =  2.0

     negative rho (up, down):  3.061E-03 0.000E+00

     total cpu time spent up to now is     1702.4 secs

     total energy              =    -831.61101438 Ry
     Harris-Foulkes estimate   =    -831.64318904 Ry
     estimated scf accuracy    <       0.27984990 Ry

     iteration #370     ecut=    80.00 Ry     beta= 0.40
     Davidson diagonalization with overlap
     ethr =  2.24E-05,  avg # of iterations =  2.0

     negative rho (up, down):  3.006E-03 0.000E+00

     total cpu time spent up to now is     1707.0 secs

     total energy              =    -831.61467779 Ry
     Harris-Foulkes estimate   =    -831.61366680 Ry
     estimated scf accuracy    <       0.13654457 Ry

     iteration #371     ecut=    80.00 Ry     beta= 0.40
     Davidson diagonalization with overlap
     ethr =  2.24E-05,  avg # of iterations =  1.0

     negative rho (up, down):  7.092E-03 0.000E+00

     total cpu time spent up to now is     1711.2 secs

     total energy              =    -831.55881330 Ry
     Harris-Foulkes estimate   =    -831.61513142 Ry
     estimated scf accuracy    <       0.50224789 Ry

     iteration #372     ecut=    80.00 Ry     beta= 0.40
     Davidson diagonalization with overlap
     ethr =  2.24E-05,  avg # of iterations =  2.0

     negative rho (up, down):  6.300E-03 0.000E+00

     total cpu time spent up to now is     1715.9 secs

     total energy              =    -831.64613450 Ry
     Harris-Foulkes estimate   =    -831.65119292 Ry
     estimated scf accuracy    <       0.29176121 Ry

     iteration #373     ecut=    80.00 Ry     beta= 0.40
     Davidson diagonalization with overlap
     ethr =  2.24E-05,  avg # of iterations =  1.0

     negative rho (up, down):  6.142E-03 0.000E+00

     total cpu time spent up to now is     1720.4 secs

     total energy              =    -831.64511541 Ry
     Harris-Foulkes estimate   =    -831.64614216 Ry
     estimated scf accuracy    <       0.28460348 Ry

     iteration #374     ecut=    80.00 Ry     beta= 0.40
     Davidson diagonalization with overlap
     ethr =  2.24E-05,  avg # of iterations =  1.0

     negative rho (up, down):  1.099E-02 0.000E+00

     total cpu time spent up to now is     1724.7 secs

     total energy              =    -831.67243272 Ry
     Harris-Foulkes estimate   =    -831.64511708 Ry
     estimated scf accuracy    <       0.28309193 Ry

     iteration #375     ecut=    80.00 Ry     beta= 0.40
     Davidson diagonalization with overlap
     ethr =  2.24E-05,  avg # of iterations =  2.0

     negative rho (up, down):  5.092E-03 0.000E+00

     total cpu time spent up to now is     1729.3 secs

     total energy              =    -831.63962655 Ry
     Harris-Foulkes estimate   =    -831.67260287 Ry
     estimated scf accuracy    <       0.32493780 Ry

     iteration #376     ecut=    80.00 Ry     beta= 0.40
     Davidson diagonalization with overlap
     ethr =  2.24E-05,  avg # of iterations =  2.0

     negative rho (up, down):  1.048E-02 0.000E+00

     total cpu time spent up to now is     1733.8 secs

     total energy              =    -831.67377977 Ry
     Harris-Foulkes estimate   =    -831.63989460 Ry
     estimated scf accuracy    <       0.27489035 Ry

     iteration #377     ecut=    80.00 Ry     beta= 0.40
     Davidson diagonalization with overlap
     ethr =  2.24E-05,  avg # of iterations =  2.0

     negative rho (up, down):  7.850E-03 0.000E+00

     total cpu time spent up to now is     1738.8 secs

     total energy              =    -831.65498417 Ry
     Harris-Foulkes estimate   =    -831.67405744 Ry
     estimated scf accuracy    <       0.32671516 Ry

     iteration #378     ecut=    80.00 Ry     beta= 0.40
     Davidson diagonalization with overlap
     ethr =  2.24E-05,  avg # of iterations =  2.0

     negative rho (up, down):  1.005E-02 0.000E+00

     total cpu time spent up to now is     1743.5 secs

     total energy              =    -831.66608529 Ry
     Harris-Foulkes estimate   =    -831.65506660 Ry
     estimated scf accuracy    <       0.29808337 Ry

     iteration #379     ecut=    80.00 Ry     beta= 0.40
     Davidson diagonalization with overlap
     ethr =  2.24E-05,  avg # of iterations =  1.0

     negative rho (up, down):  9.771E-03 0.000E+00

     total cpu time spent up to now is     1747.9 secs

     total energy              =    -831.66646009 Ry
     Harris-Foulkes estimate   =    -831.66611580 Ry
     estimated scf accuracy    <       0.31497304 Ry

     iteration #380     ecut=    80.00 Ry     beta= 0.40
     Davidson diagonalization with overlap
     ethr =  2.24E-05,  avg # of iterations =  1.0

     negative rho (up, down):  1.136E-03 0.000E+00

     total cpu time spent up to now is     1752.2 secs

     total energy              =    -831.42008584 Ry
     Harris-Foulkes estimate   =    -831.66646143 Ry
     estimated scf accuracy    <       0.31530463 Ry

     iteration #381     ecut=    80.00 Ry     beta= 0.40
     Davidson diagonalization with overlap
     ethr =  2.24E-05,  avg # of iterations =  3.0

     negative rho (up, down):  1.120E-03 0.000E+00

     total cpu time spent up to now is     1758.1 secs

     total energy              =    -832.43505975 Ry
     Harris-Foulkes estimate   =    -833.35926520 Ry
     estimated scf accuracy    <       8.26302312 Ry

     iteration #382     ecut=    80.00 Ry     beta= 0.40
     Davidson diagonalization with overlap
     ethr =  2.24E-05,  avg # of iterations =  2.0

     negative rho (up, down):  2.828E-03 0.000E+00

     total cpu time spent up to now is     1763.4 secs

     total energy              =    -831.59647560 Ry
     Harris-Foulkes estimate   =    -832.43905804 Ry
     estimated scf accuracy    <       7.00394626 Ry

     iteration #383     ecut=    80.00 Ry     beta= 0.40
     Davidson diagonalization with overlap
     ethr =  2.24E-05,  avg # of iterations =  2.0

     negative rho (up, down):  3.229E-03 0.000E+00

     total cpu time spent up to now is     1768.9 secs

     total energy              =    -831.60430751 Ry
     Harris-Foulkes estimate   =    -831.61485099 Ry
     estimated scf accuracy    <       0.41972129 Ry

     iteration #384     ecut=    80.00 Ry     beta= 0.40
     Davidson diagonalization with overlap
     ethr =  2.24E-05,  avg # of iterations =  1.0

     negative rho (up, down):  3.848E-03 0.000E+00

     total cpu time spent up to now is     1773.1 secs

     total energy              =    -831.63128924 Ry
     Harris-Foulkes estimate   =    -831.61716699 Ry
     estimated scf accuracy    <       0.34600385 Ry

     iteration #385     ecut=    80.00 Ry     beta= 0.40
     Davidson diagonalization with overlap
     ethr =  2.24E-05,  avg # of iterations =  1.0

     negative rho (up, down):  1.117E-02 0.000E+00

     total cpu time spent up to now is     1777.3 secs

     total energy              =    -831.67522353 Ry
     Harris-Foulkes estimate   =    -831.62991392 Ry
     estimated scf accuracy    <       0.25889378 Ry

     iteration #386     ecut=    80.00 Ry     beta= 0.40
     Davidson diagonalization with overlap
     ethr =  2.24E-05,  avg # of iterations =  3.0

     negative rho (up, down):  2.363E-02 0.000E+00

     total cpu time spent up to now is     1782.7 secs

     total energy              =    -831.73672032 Ry
     Harris-Foulkes estimate   =    -831.67584937 Ry
     estimated scf accuracy    <       0.32978808 Ry

     iteration #387     ecut=    80.00 Ry     beta= 0.40
     Davidson diagonalization with overlap
     ethr =  2.24E-05,  avg # of iterations =  2.0

     negative rho (up, down):  1.488E-02 0.000E+00

     total cpu time spent up to now is     1787.8 secs

     total energy              =    -831.69885552 Ry
     Harris-Foulkes estimate   =    -831.73734957 Ry
     estimated scf accuracy    <       0.42148594 Ry

     iteration #388     ecut=    80.00 Ry     beta= 0.40
     Davidson diagonalization with overlap
     ethr =  2.24E-05,  avg # of iterations =  2.0

     negative rho (up, down):  9.813E-03 0.000E+00

     total cpu time spent up to now is     1792.3 secs

     total energy              =    -831.66836820 Ry
     Harris-Foulkes estimate   =    -831.69910290 Ry
     estimated scf accuracy    <       0.36399578 Ry

     iteration #389     ecut=    80.00 Ry     beta= 0.40
     Davidson diagonalization with overlap
     ethr =  2.24E-05,  avg # of iterations =  2.0

     negative rho (up, down):  1.008E-02 0.000E+00

     total cpu time spent up to now is     1796.8 secs

     total energy              =    -831.67032373 Ry
     Harris-Foulkes estimate   =    -831.66854185 Ry
     estimated scf accuracy    <       0.31842995 Ry

     iteration #390     ecut=    80.00 Ry     beta= 0.40
     Davidson diagonalization with overlap
     ethr =  2.24E-05,  avg # of iterations =  1.0

     negative rho (up, down):  1.274E-02 0.000E+00

     total cpu time spent up to now is     1801.3 secs

     total energy              =    -831.68588149 Ry
     Harris-Foulkes estimate   =    -831.67032567 Ry
     estimated scf accuracy    <       0.32093138 Ry

     iteration #391     ecut=    80.00 Ry     beta= 0.40
     Davidson diagonalization with overlap
     ethr =  2.24E-05,  avg # of iterations =  1.0

     negative rho (up, down):  1.368E-02 0.000E+00

     total cpu time spent up to now is     1805.7 secs

     total energy              =    -831.69125713 Ry
     Harris-Foulkes estimate   =    -831.68593025 Ry
     estimated scf accuracy    <       0.34422429 Ry

     iteration #392     ecut=    80.00 Ry     beta= 0.40
     Davidson diagonalization with overlap
     ethr =  2.24E-05,  avg # of iterations =  1.0

     negative rho (up, down):  1.184E-02 0.000E+00

     total cpu time spent up to now is     1810.0 secs

     total energy              =    -831.68573862 Ry
     Harris-Foulkes estimate   =    -831.69126212 Ry
     estimated scf accuracy    <       0.35170215 Ry

     iteration #393     ecut=    80.00 Ry     beta= 0.40
     Davidson diagonalization with overlap
     ethr =  2.24E-05,  avg # of iterations =  1.0

     negative rho (up, down):  1.137E-03 0.000E+00

     total cpu time spent up to now is     1814.1 secs

     total energy              =    -831.41611265 Ry
     Harris-Foulkes estimate   =    -831.68574041 Ry
     estimated scf accuracy    <       0.34466340 Ry

     iteration #394     ecut=    80.00 Ry     beta= 0.40
     Davidson diagonalization with overlap
     ethr =  2.24E-05,  avg # of iterations =  3.0

     negative rho (up, down):  1.101E-03 0.000E+00

     total cpu time spent up to now is     1820.4 secs

     total energy              =    -831.89179819 Ry
     Harris-Foulkes estimate   =    -833.35747322 Ry
     estimated scf accuracy    <       8.26067798 Ry

     iteration #395     ecut=    80.00 Ry     beta= 0.40
     Davidson diagonalization with overlap
     ethr =  2.24E-05,  avg # of iterations =  3.0

     negative rho (up, down):  8.896E-03 0.000E+00

     total cpu time spent up to now is     1826.6 secs

     total energy              =    -831.35816759 Ry
     Harris-Foulkes estimate   =    -831.90377277 Ry
     estimated scf accuracy    <       6.22486766 Ry

     iteration #396     ecut=    80.00 Ry     beta= 0.40
     Davidson diagonalization with overlap
     ethr =  2.24E-05,  avg # of iterations =  3.0

     negative rho (up, down):  7.710E-03 0.000E+00

     total cpu time spent up to now is     1832.1 secs

     total energy              =    -831.65550619 Ry
     Harris-Foulkes estimate   =    -831.66233694 Ry
     estimated scf accuracy    <       0.30889783 Ry

     iteration #397     ecut=    80.00 Ry     beta= 0.40
     Davidson diagonalization with overlap
     ethr =  2.24E-05,  avg # of iterations =  1.0

     negative rho (up, down):  8.136E-03 0.000E+00

     total cpu time spent up to now is     1836.4 secs

     total energy              =    -831.65821211 Ry
     Harris-Foulkes estimate   =    -831.65552106 Ry
     estimated scf accuracy    <       0.29858255 Ry

     iteration #398     ecut=    80.00 Ry     beta= 0.40
     Davidson diagonalization with overlap
     ethr =  2.24E-05,  avg # of iterations =  1.0

     negative rho (up, down):  7.452E-03 0.000E+00

     total cpu time spent up to now is     1840.7 secs

     total energy              =    -831.65379811 Ry
     Harris-Foulkes estimate   =    -831.65821407 Ry
     estimated scf accuracy    <       0.30227221 Ry

     iteration #399     ecut=    80.00 Ry     beta= 0.40
     Davidson diagonalization with overlap
     ethr =  2.24E-05,  avg # of iterations =  1.0

     negative rho (up, down):  1.034E-02 0.000E+00

     total cpu time spent up to now is     1845.0 secs

     total energy              =    -831.67076073 Ry
     Harris-Foulkes estimate   =    -831.65380124 Ry
     estimated scf accuracy    <       0.29588748 Ry

     iteration #400     ecut=    80.00 Ry     beta= 0.40
     Davidson diagonalization with overlap
     ethr =  2.24E-05,  avg # of iterations =  2.0

     negative rho (up, down):  9.411E-03 0.000E+00

     total cpu time spent up to now is     1849.7 secs

     total energy              =    -831.66535337 Ry
     Harris-Foulkes estimate   =    -831.67083196 Ry
     estimated scf accuracy    <       0.32203642 Ry

     End of self-consistent calculation

     convergence NOT achieved after 400 iterations: stopping

     init_run     :      2.18s CPU      3.51s WALL (       1 calls)
     electrons    :   1153.80s CPU   1843.55s WALL (       1 calls)

     Called by init_run:
     wfcinit      :      1.60s CPU      2.54s WALL (       1 calls)
     potinit      :      0.12s CPU      0.22s WALL (       1 calls)
     hinit0       :      0.39s CPU      0.60s WALL (       1 calls)

     Called by electrons:
     c_bands      :    900.90s CPU   1418.00s WALL (     400 calls)
     sum_band     :    200.97s CPU    320.65s WALL (     400 calls)
     v_of_rho     :      6.15s CPU     10.48s WALL (     401 calls)
     newd         :     19.57s CPU     27.05s WALL (     401 calls)
     PAW_pot      :     23.31s CPU     62.13s WALL (     401 calls)
     mix_rho      :      2.40s CPU      3.85s WALL (     400 calls)

     Called by c_bands:
     init_us_2    :     36.36s CPU     47.01s WALL (   88110 calls)
     cegterg      :    823.85s CPU   1301.64s WALL (   44000 calls)

     Called by sum_band:
     sum_band:bec :      0.69s CPU      0.95s WALL (   44000 calls)
     addusdens    :     16.35s CPU     19.39s WALL (     400 calls)

     Called by *egterg:
     h_psi        :    637.62s CPU   1018.19s WALL (  108950 calls)
     s_psi        :     36.00s CPU     45.50s WALL (  108950 calls)
     g_psi        :      1.49s CPU      1.90s WALL (   64840 calls)
     cdiaghg      :     13.14s CPU     17.88s WALL (  108840 calls)

     Called by h_psi:
     h_psi:pot    :    632.77s CPU   1011.91s WALL (  108950 calls)
     h_psi:calbec :     80.24s CPU    141.26s WALL (  108950 calls)
     vloc_psi     :    513.91s CPU    819.81s WALL (  108950 calls)
     add_vuspsi   :     38.12s CPU     50.27s WALL (  108950 calls)

     General routines
     calbec       :    114.73s CPU    199.57s WALL (  152950 calls)
     fft          :      3.63s CPU      9.00s WALL (    4413 calls)
     ffts         :      0.17s CPU      0.28s WALL (     400 calls)
     fftw         :    576.48s CPU    942.99s WALL ( 2091840 calls)
     davcio       :      0.01s CPU      0.02s WALL (     128 calls)

     Parallel routines
     fft_scatt_xy :     53.07s CPU     70.41s WALL ( 2096653 calls)
     fft_scatt_yz :    320.66s CPU    609.96s WALL ( 2096653 calls)

     PWSCF        : 19m17.98s CPU    30m49.76s WALL


   This run was terminated on:  21:42:23  23Oct2018            

=------------------------------------------------------------------------------=
   JOB DONE.
=------------------------------------------------------------------------------=
-------------------------------------------------------
Primary job  terminated normally, but 1 process returned
a non-zero exit code.. Per user-direction, the job has been aborted.
-------------------------------------------------------
--------------------------------------------------------------------------
mpirun.openmpi detected that one or more processes exited with non-zero status, thus causing
the job to be terminated. The first process to do so was:

  Process name: [[29647,1],4]
  Exit code:    2
--------------------------------------------------------------------------
