
     Program PWSCF v.6.3MaX starts on 24Oct2018 at 12:17:12 

     This program is part of the open-source Quantum ESPRESSO suite
     for quantum simulation of materials; please cite
         "P. Giannozzi et al., J. Phys.:Condens. Matter 21 395502 (2009);
         "P. Giannozzi et al., J. Phys.:Condens. Matter 29 465901 (2017);
          URL http://www.quantum-espresso.org", 
     in publications or presentations arising from this work. More details at
     http://www.quantum-espresso.org/quote

     Parallel version (MPI), running on     8 processors

     MPI processes distributed on     1 nodes
     R & G space division:  proc/nbgrp/npool/nimage =       8
     Waiting for input...
     Reading input from standard input
Warning: card &CELL ignored
Warning: card                CELL_DYNAMICS = 'BFGS' , ignored
Warning: card / ignored

     Current dimensions of program PWSCF are:
     Max number of different atomic species (ntypx) = 10
     Max number of k-points (npk) =  40000
     Max angular momentum in pseudopotentials (lmaxx) =  3
     Message from routine iosys:
     minimal I/O required, wf_collect reset to FALSE
               file N.pbe-n-kjpaw_psl.1.0.0.UPF: wavefunction(s)  2S renormalized
               file Na.pbe-spnl-kjpaw_psl.1.0.0.UPF: wavefunction(s)  2P renormalized

     Subspace diagonalization in iterative solution of the eigenvalue problem:
     a serial algorithm will be used


     Parallelization info
     --------------------
     sticks:   dense  smooth     PW     G-vecs:    dense   smooth      PW
     Min         125     125     38                 2602     2602     440
     Max         126     126     40                 2605     2605     441
     Sum        1003    1003    313                20827    20827    3527



     bravais-lattice index     =            2
     lattice parameter (alat)  =       9.5000  a.u.
     unit-cell volume          =     214.3438 (a.u.)^3
     number of atoms/cell      =            3
     number of atomic types    =            3
     number of electrons       =         9.00
     number of Kohn-Sham states=            9
     kinetic-energy cutoff     =      80.0000  Ry
     charge density cutoff     =     320.0000  Ry
     convergence threshold     =      1.0E-09
     mixing beta               =       0.4000
     number of iterations used =            8  plain     mixing
     Exchange-correlation      = SLA PW PBX PBC ( 1  4  3  4 0 0)

     celldm(1)=   9.500000  celldm(2)=   0.000000  celldm(3)=   0.000000
     celldm(4)=   0.000000  celldm(5)=   0.000000  celldm(6)=   0.000000

     crystal axes: (cart. coord. in units of alat)
               a(1) = (  -0.500000   0.000000   0.500000 )  
               a(2) = (   0.000000   0.500000   0.500000 )  
               a(3) = (  -0.500000   0.500000   0.000000 )  

     reciprocal axes: (cart. coord. in units 2 pi/alat)
               b(1) = ( -1.000000 -1.000000  1.000000 )  
               b(2) = (  1.000000  1.000000  1.000000 )  
               b(3) = ( -1.000000  1.000000 -1.000000 )  


     PseudoPot. # 1 for N  read from file:
     ./ps/N.pbe-n-kjpaw_psl.1.0.0.UPF
     MD5 check sum: 200139db3989ad6e773ddd42f12fc3a8
     Pseudo is Projector augmented-wave + core cor, Zval =  5.0
     Generated using "atomic" code by A. Dal Corso v.6.3
     Shape of augmentation charge: PSQ
     Using radial grid of 1085 points,  4 beta functions with: 
                l(1) =   0
                l(2) =   0
                l(3) =   1
                l(4) =   1
     Q(r) pseudized with 0 coefficients 


     PseudoPot. # 2 for Na read from file:
     ./ps/Na.pbe-spnl-kjpaw_psl.1.0.0.UPF
     MD5 check sum: 09e782c158f17eb2240230c4112357ee
     Pseudo is Projector augmented-wave + core cor, Zval =  9.0
     Generated using "atomic" code by A. Dal Corso v.6.3
     Shape of augmentation charge: PSQ
     Using radial grid of 1121 points,  4 beta functions with: 
                l(1) =   0
                l(2) =   0
                l(3) =   1
                l(4) =   1
     Q(r) pseudized with 0 coefficients 


     PseudoPot. # 3 for Cs read from file:
     ./ps/Cs.pbe-spnl-kjpaw_psl.1.0.0.UPF
     MD5 check sum: f98336d4a4407e24c1ab1e3bc36275e8
     Pseudo is Projector augmented-wave + core cor, Zval = -5.0
     Generated using "atomic" code by A. Dal Corso v.6.2.2
     Shape of augmentation charge: PSQ
     Using radial grid of 1251 points,  6 beta functions with: 
                l(1) =   0
                l(2) =   0
                l(3) =   1
                l(4) =   1
                l(5) =   2
                l(6) =   2
     Q(r) pseudized with 0 coefficients 


     atomic species   valence    mass     pseudopotential
        N              5.00    14.00670     N ( 1.00)
        Na             9.00    22.98977     Na( 1.00)
        Cs            -5.00   132.90545     Cs( 1.00)

     24 Sym. Ops. (no inversion) found



   Cartesian axes

     site n.     atom                  positions (alat units)
         1           N   tau(   1) = (   0.0000000   0.0000000   0.0000000  )
         2           Na  tau(   2) = (  -0.2500000   0.2500000   0.2500000  )
         3           Cs  tau(   3) = (  -0.7500000   0.7500000   0.7500000  )

     number of k points=   110  Methfessel-Paxton smearing, width (Ry)=  0.0200

     Number of k-points >= 100: set verbosity='high' to print them.

     Dense  grid:    20827 G-vectors     FFT dimensions: (  40,  40,  40)

     Estimated max dynamical RAM per process >      21.38 MB

     Estimated total dynamical RAM >     171.01 MB

     Check: negative/imaginary core charge=   -0.000002    0.000000

     Initial potential from superposition of free atoms

     starting charge   22.95298, renormalised to    9.00000
     Starting wfcs are   14 randomized atomic wfcs
     Checking if some PAW data can be deallocated... 

     total cpu time spent up to now is        5.2 secs

     Self-consistent Calculation

     iteration #  1     ecut=    80.00 Ry     beta= 0.40
     Davidson diagonalization with overlap
     ethr =  1.00E-02,  avg # of iterations =  9.8

     total cpu time spent up to now is       11.4 secs

     total energy              =   -1187.14260112 Ry
     Harris-Foulkes estimate   =   -1190.44322198 Ry
     estimated scf accuracy    <       8.45039141 Ry

     iteration #  2     ecut=    80.00 Ry     beta= 0.40
     Davidson diagonalization with overlap
     ethr =  1.00E-02,  avg # of iterations =  2.0

     negative rho (up, down):  2.734E-05 0.000E+00

     total cpu time spent up to now is       14.1 secs

     total energy              =   -1186.49592219 Ry
     Harris-Foulkes estimate   =   -1187.54256486 Ry
     estimated scf accuracy    <       2.08004213 Ry

     iteration #  3     ecut=    80.00 Ry     beta= 0.40
     Davidson diagonalization with overlap
     ethr =  1.00E-02,  avg # of iterations =  1.5

     negative rho (up, down):  5.561E-03 0.000E+00

     total cpu time spent up to now is       16.4 secs

     total energy              =   -1186.44651742 Ry
     Harris-Foulkes estimate   =   -1186.62146761 Ry
     estimated scf accuracy    <       0.23045711 Ry

     iteration #  4     ecut=    80.00 Ry     beta= 0.40
     Davidson diagonalization with overlap
     ethr =  2.56E-03,  avg # of iterations =  2.9

     negative rho (up, down):  2.145E-02 0.000E+00

     total cpu time spent up to now is       19.1 secs

     total energy              =   -1186.49088166 Ry
     Harris-Foulkes estimate   =   -1186.49897363 Ry
     estimated scf accuracy    <       0.01061812 Ry

     iteration #  5     ecut=    80.00 Ry     beta= 0.40
     Davidson diagonalization with overlap
     ethr =  1.18E-04,  avg # of iterations =  4.4

     negative rho (up, down):  2.056E-02 0.000E+00

     total cpu time spent up to now is       23.3 secs

     total energy              =   -1186.49651095 Ry
     Harris-Foulkes estimate   =   -1186.49939779 Ry
     estimated scf accuracy    <       0.00294127 Ry

     iteration #  6     ecut=    80.00 Ry     beta= 0.40
     Davidson diagonalization with overlap
     ethr =  3.27E-05,  avg # of iterations =  2.3

     negative rho (up, down):  2.309E-02 0.000E+00

     total cpu time spent up to now is       26.0 secs

     total energy              =   -1186.49728665 Ry
     Harris-Foulkes estimate   =   -1186.49715069 Ry
     estimated scf accuracy    <       0.00008064 Ry

     iteration #  7     ecut=    80.00 Ry     beta= 0.40
     Davidson diagonalization with overlap
     ethr =  8.96E-07,  avg # of iterations =  5.7

     negative rho (up, down):  2.398E-02 0.000E+00

     total cpu time spent up to now is       30.5 secs

     total energy              =   -1186.49724036 Ry
     Harris-Foulkes estimate   =   -1186.49736982 Ry
     estimated scf accuracy    <       0.00016836 Ry

     iteration #  8     ecut=    80.00 Ry     beta= 0.40
     Davidson diagonalization with overlap
     ethr =  8.96E-07,  avg # of iterations =  2.1

     negative rho (up, down):  2.406E-02 0.000E+00

     total cpu time spent up to now is       33.2 secs

     total energy              =   -1186.49728106 Ry
     Harris-Foulkes estimate   =   -1186.49729512 Ry
     estimated scf accuracy    <       0.00002817 Ry

     iteration #  9     ecut=    80.00 Ry     beta= 0.40
     Davidson diagonalization with overlap
     ethr =  3.13E-07,  avg # of iterations =  1.9

     negative rho (up, down):  2.406E-02 0.000E+00

     total cpu time spent up to now is       35.8 secs

     total energy              =   -1186.49728668 Ry
     Harris-Foulkes estimate   =   -1186.49728675 Ry
     estimated scf accuracy    <       0.00000009 Ry

     iteration # 10     ecut=    80.00 Ry     beta= 0.40
     Davidson diagonalization with overlap
     ethr =  1.04E-09,  avg # of iterations =  5.0

     negative rho (up, down):  2.408E-02 0.000E+00

     total cpu time spent up to now is       39.7 secs

     total energy              =   -1186.49728713 Ry
     Harris-Foulkes estimate   =   -1186.49728706 Ry
     estimated scf accuracy    <       0.00000005 Ry

     iteration # 11     ecut=    80.00 Ry     beta= 0.40
     Davidson diagonalization with overlap
     ethr =  5.47E-10,  avg # of iterations =  2.0

     negative rho (up, down):  2.409E-02 0.000E+00

     total cpu time spent up to now is       42.3 secs

     total energy              =   -1186.49728714 Ry
     Harris-Foulkes estimate   =   -1186.49728714 Ry
     estimated scf accuracy    <          6.0E-09 Ry

     iteration # 12     ecut=    80.00 Ry     beta= 0.40
     Davidson diagonalization with overlap
     ethr =  6.63E-11,  avg # of iterations =  2.2

     negative rho (up, down):  2.409E-02 0.000E+00

     total cpu time spent up to now is       44.9 secs

     total energy              =   -1186.49728714 Ry
     Harris-Foulkes estimate   =   -1186.49728714 Ry
     estimated scf accuracy    <          1.1E-09 Ry

     iteration # 13     ecut=    80.00 Ry     beta= 0.40
     Davidson diagonalization with overlap
     ethr =  1.22E-11,  avg # of iterations =  2.7

     negative rho (up, down):  2.409E-02 0.000E+00

     total cpu time spent up to now is       47.5 secs

     End of self-consistent calculation

     Number of k-points >= 100: set verbosity='high' to print the bands.

     the Fermi energy is -1099.1216 ev

!    total energy              =   -1186.49728715 Ry
     Harris-Foulkes estimate   =   -1186.49728715 Ry
     estimated scf accuracy    <          2.7E-10 Ry

     total all-electron energy =    -16641.583063 Ry

     The total energy is the sum of the following terms:

     one-electron contribution =    -730.25398581 Ry
     hartree contribution      =       3.08612443 Ry
     xc contribution           =     -20.67448356 Ry
     ewald contribution        =     -56.27562220 Ry
     one-center paw contrib.   =    -382.37928121 Ry
     smearing contrib. (-TS)   =      -0.00003880 Ry

     convergence has been achieved in  13 iterations

     negative rho (up, down):  2.409E-02 0.000E+00

     Forces acting on atoms (cartesian axes, Ry/au):

     atom    1 type  1   force =     0.00000000    0.00000000    0.00000000
     atom    2 type  2   force =    -0.00000000   -0.00000000   -0.00000000
     atom    3 type  3   force =     0.00000000    0.00000000    0.00000000

     Total force =     0.000000     Total SCF correction =     0.000000


     Computing stress (Cartesian axis) and pressure


     negative rho (up, down):  2.409E-02 0.000E+00
          total   stress  (Ry/bohr**3)                   (kbar)     P=********
  -3.66043573  -0.00000000  -0.00000000    -538468.60     -0.00     -0.00
  -0.00000000  -3.66043573  -0.00000000         -0.00-538468.60     -0.00
  -0.00000000   0.00000000  -3.66043573         -0.00      0.00-538468.60


     init_run     :      1.05s CPU      2.11s WALL (       1 calls)
     electrons    :     21.36s CPU     42.31s WALL (       1 calls)
     forces       :      0.28s CPU      0.47s WALL (       1 calls)
     stress       :      0.66s CPU      1.20s WALL (       1 calls)

     Called by init_run:
     wfcinit      :      0.63s CPU      1.22s WALL (       1 calls)
     potinit      :      0.08s CPU      0.25s WALL (       1 calls)
     hinit0       :      0.29s CPU      0.55s WALL (       1 calls)

     Called by electrons:
     c_bands      :     17.87s CPU     33.95s WALL (      13 calls)
     sum_band     :      2.53s CPU      4.93s WALL (      13 calls)
     v_of_rho     :      0.09s CPU      0.15s WALL (      14 calls)
     newd         :      0.20s CPU      0.41s WALL (      14 calls)
     PAW_pot      :      0.73s CPU      3.03s WALL (      14 calls)
     mix_rho      :      0.02s CPU      0.05s WALL (      13 calls)

     Called by c_bands:
     init_us_2    :      0.56s CPU      0.67s WALL (    3190 calls)
     cegterg      :     16.87s CPU     32.10s WALL (    1430 calls)

     Called by sum_band:
     sum_band:bec :      0.02s CPU      0.02s WALL (    1430 calls)
     addusdens    :      0.18s CPU      0.23s WALL (      13 calls)

     Called by *egterg:
     h_psi        :     12.13s CPU     23.48s WALL (    6419 calls)
     s_psi        :      0.82s CPU      0.98s WALL (    6419 calls)
     g_psi        :      0.04s CPU      0.05s WALL (    4879 calls)
     cdiaghg      :      1.08s CPU      1.58s WALL (    6309 calls)

     Called by h_psi:
     h_psi:pot    :     12.05s CPU     23.38s WALL (    6419 calls)
     h_psi:calbec :      1.37s CPU      2.97s WALL (    6419 calls)
     vloc_psi     :      9.78s CPU     19.31s WALL (    6419 calls)
     add_vuspsi   :      0.88s CPU      1.07s WALL (    6419 calls)

     General routines
     calbec       :      2.03s CPU      4.56s WALL (    8399 calls)
     fft          :      0.07s CPU      0.34s WALL (     180 calls)
     ffts         :      0.00s CPU      0.01s WALL (      13 calls)
     fftw         :     10.38s CPU     21.40s WALL (   93170 calls)

     Parallel routines
     fft_scatt_xy :      0.94s CPU      1.14s WALL (   93363 calls)
     fft_scatt_yz :      4.80s CPU     14.93s WALL (   93363 calls)

     PWSCF        :    25.30s CPU        49.21s WALL


   This run was terminated on:  12:18: 2  24Oct2018            

=------------------------------------------------------------------------------=
   JOB DONE.
=------------------------------------------------------------------------------=
