
     Program PWSCF v.6.3MaX starts on 23Oct2018 at 13:28:52 

     This program is part of the open-source Quantum ESPRESSO suite
     for quantum simulation of materials; please cite
         "P. Giannozzi et al., J. Phys.:Condens. Matter 21 395502 (2009);
         "P. Giannozzi et al., J. Phys.:Condens. Matter 29 465901 (2017);
          URL http://www.quantum-espresso.org", 
     in publications or presentations arising from this work. More details at
     http://www.quantum-espresso.org/quote

     Parallel version (MPI), running on     8 processors

     MPI processes distributed on     1 nodes
     R & G space division:  proc/nbgrp/npool/nimage =       8
     Waiting for input...
     Reading input from standard input
Warning: card &CELL ignored
Warning: card                CELL_DYNAMICS = 'BFGS' , ignored
Warning: card / ignored

     Current dimensions of program PWSCF are:
     Max number of different atomic species (ntypx) = 10
     Max number of k-points (npk) =  40000
     Max angular momentum in pseudopotentials (lmaxx) =  3
               file N.pbe-n-kjpaw_psl.1.0.0.UPF: wavefunction(s)  2S renormalized
               file Na.pbe-spnl-kjpaw_psl.1.0.0.UPF: wavefunction(s)  2P renormalized

     Subspace diagonalization in iterative solution of the eigenvalue problem:
     a serial algorithm will be used


     Parallelization info
     --------------------
     sticks:   dense  smooth     PW     G-vecs:    dense   smooth      PW
     Min         270     270     78                 8243     8243    1272
     Max         271     271     79                 8245     8245    1273
     Sum        2161    2161    625                65955    65955   10177



     bravais-lattice index     =            2
     lattice parameter (alat)  =      14.6200  a.u.
     unit-cell volume          =     781.2358 (a.u.)^3
     number of atoms/cell      =            3
     number of atomic types    =            3
     number of electrons       =         9.00
     number of Kohn-Sham states=            9
     kinetic-energy cutoff     =      73.0000  Ry
     charge density cutoff     =     292.0000  Ry
     convergence threshold     =      1.0E-09
     mixing beta               =       0.4000
     number of iterations used =            8  plain     mixing
     Exchange-correlation      = SLA PW PBX PBC ( 1  4  3  4 0 0)

     celldm(1)=  14.620000  celldm(2)=   0.000000  celldm(3)=   0.000000
     celldm(4)=   0.000000  celldm(5)=   0.000000  celldm(6)=   0.000000

     crystal axes: (cart. coord. in units of alat)
               a(1) = (  -0.500000   0.000000   0.500000 )  
               a(2) = (   0.000000   0.500000   0.500000 )  
               a(3) = (  -0.500000   0.500000   0.000000 )  

     reciprocal axes: (cart. coord. in units 2 pi/alat)
               b(1) = ( -1.000000 -1.000000  1.000000 )  
               b(2) = (  1.000000  1.000000  1.000000 )  
               b(3) = ( -1.000000  1.000000 -1.000000 )  


     PseudoPot. # 1 for N  read from file:
     ./../ps/N.pbe-n-kjpaw_psl.1.0.0.UPF
     MD5 check sum: 200139db3989ad6e773ddd42f12fc3a8
     Pseudo is Projector augmented-wave + core cor, Zval =  5.0
     Generated using "atomic" code by A. Dal Corso v.6.3
     Shape of augmentation charge: PSQ
     Using radial grid of 1085 points,  4 beta functions with: 
                l(1) =   0
                l(2) =   0
                l(3) =   1
                l(4) =   1
     Q(r) pseudized with 0 coefficients 


     PseudoPot. # 2 for Na read from file:
     ./../ps/Na.pbe-spnl-kjpaw_psl.1.0.0.UPF
     MD5 check sum: 09e782c158f17eb2240230c4112357ee
     Pseudo is Projector augmented-wave + core cor, Zval =  9.0
     Generated using "atomic" code by A. Dal Corso v.6.3
     Shape of augmentation charge: PSQ
     Using radial grid of 1121 points,  4 beta functions with: 
                l(1) =   0
                l(2) =   0
                l(3) =   1
                l(4) =   1
     Q(r) pseudized with 0 coefficients 


     PseudoPot. # 3 for Cs read from file:
     ./../ps/Cs.pbe-spnl-kjpaw_psl.1.0.0.UPF
     MD5 check sum: f98336d4a4407e24c1ab1e3bc36275e8
     Pseudo is Projector augmented-wave + core cor, Zval = -5.0
     Generated using "atomic" code by A. Dal Corso v.6.2.2
     Shape of augmentation charge: PSQ
     Using radial grid of 1251 points,  6 beta functions with: 
                l(1) =   0
                l(2) =   0
                l(3) =   1
                l(4) =   1
                l(5) =   2
                l(6) =   2
     Q(r) pseudized with 0 coefficients 


     atomic species   valence    mass     pseudopotential
        N              5.00    14.00670     N ( 1.00)
        Na             9.00    22.98977     Na( 1.00)
        Cs            -5.00   132.90545     Cs( 1.00)

     24 Sym. Ops. (no inversion) found



   Cartesian axes

     site n.     atom                  positions (alat units)
         1           N   tau(   1) = (   0.0000000   0.0000000   0.0000000  )
         2           Na  tau(   2) = (  -0.2500000   0.2500000   0.2500000  )
         3           Cs  tau(   3) = (  -0.7500000   0.7500000   0.7500000  )

     number of k points=   110  Methfessel-Paxton smearing, width (Ry)=  0.0200

     Number of k-points >= 100: set verbosity='high' to print them.

     Dense  grid:    65955 G-vectors     FFT dimensions: (  60,  60,  60)

     Estimated max dynamical RAM per process >      56.97 MB

     Estimated total dynamical RAM >     455.72 MB

     Check: negative/imaginary core charge=   -0.000001    0.000000

     Initial potential from superposition of free atoms

     starting charge   22.95298, renormalised to    9.00000
     Starting wfcs are   14 randomized atomic wfcs
     Checking if some PAW data can be deallocated... 

     total cpu time spent up to now is        5.5 secs

     Self-consistent Calculation

     iteration #  1     ecut=    73.00 Ry     beta= 0.40
     Davidson diagonalization with overlap
     ethr =  1.00E-02,  avg # of iterations = 12.4

     total cpu time spent up to now is       19.5 secs

     total energy              =    -717.44238415 Ry
     Harris-Foulkes estimate   =    -745.46604562 Ry
     estimated scf accuracy    <      48.68267540 Ry

     iteration #  2     ecut=    73.00 Ry     beta= 0.40
     Davidson diagonalization with overlap
     ethr =  1.00E-02,  avg # of iterations =  3.0

     total cpu time spent up to now is       26.6 secs

     total energy              =    -709.74744750 Ry
     Harris-Foulkes estimate   =    -719.39138129 Ry
     estimated scf accuracy    <      11.17874883 Ry

     iteration #  3     ecut=    73.00 Ry     beta= 0.40
     Davidson diagonalization with overlap
     ethr =  1.00E-02,  avg # of iterations =  9.7

     negative rho (up, down):  9.370E-02 0.000E+00

     total cpu time spent up to now is       39.8 secs

     total energy              =    -712.58979486 Ry
     Harris-Foulkes estimate   =    -713.18181486 Ry
     estimated scf accuracy    <       1.08842965 Ry

     iteration #  4     ecut=    73.00 Ry     beta= 0.40
     Davidson diagonalization with overlap
     ethr =  1.00E-02,  avg # of iterations =  3.4

     negative rho (up, down):  1.856E-01 0.000E+00

     total cpu time spent up to now is       46.6 secs

     total energy              =    -712.72737665 Ry
     Harris-Foulkes estimate   =    -712.91832448 Ry
     estimated scf accuracy    <       0.28056700 Ry

     iteration #  5     ecut=    73.00 Ry     beta= 0.40
     Davidson diagonalization with overlap
     ethr =  3.12E-03,  avg # of iterations =  6.0

     negative rho (up, down):  2.256E-01 0.000E+00

     total cpu time spent up to now is       55.4 secs

     total energy              =    -712.77224943 Ry
     Harris-Foulkes estimate   =    -712.81853042 Ry
     estimated scf accuracy    <       0.08268190 Ry

     iteration #  6     ecut=    73.00 Ry     beta= 0.40
     Davidson diagonalization with overlap
     ethr =  9.19E-04,  avg # of iterations =  2.9

     negative rho (up, down):  2.242E-01 0.000E+00

     total cpu time spent up to now is       62.0 secs

     total energy              =    -712.78836682 Ry
     Harris-Foulkes estimate   =    -712.78837504 Ry
     estimated scf accuracy    <       0.00004316 Ry

     iteration #  7     ecut=    73.00 Ry     beta= 0.40
     Davidson diagonalization with overlap
     ethr =  4.80E-07,  avg # of iterations = 12.2

     negative rho (up, down):  2.239E-01 0.000E+00

     total cpu time spent up to now is       77.9 secs

     total energy              =    -712.78952320 Ry
     Harris-Foulkes estimate   =    -712.78953874 Ry
     estimated scf accuracy    <       0.00001674 Ry

     iteration #  8     ecut=    73.00 Ry     beta= 0.40
     Davidson diagonalization with overlap
     ethr =  1.86E-07,  avg # of iterations =  3.1

     negative rho (up, down):  2.246E-01 0.000E+00

     total cpu time spent up to now is       84.4 secs

     total energy              =    -712.78953353 Ry
     Harris-Foulkes estimate   =    -712.78953636 Ry
     estimated scf accuracy    <       0.00000684 Ry

     iteration #  9     ecut=    73.00 Ry     beta= 0.40
     Davidson diagonalization with overlap
     ethr =  7.60E-08,  avg # of iterations =  2.0

     negative rho (up, down):  2.246E-01 0.000E+00

     total cpu time spent up to now is       90.5 secs

     total energy              =    -712.78953298 Ry
     Harris-Foulkes estimate   =    -712.78953534 Ry
     estimated scf accuracy    <       0.00000143 Ry

     iteration # 10     ecut=    73.00 Ry     beta= 0.40
     Davidson diagonalization with overlap
     ethr =  1.59E-08,  avg # of iterations =  2.0

     negative rho (up, down):  2.245E-01 0.000E+00

     total cpu time spent up to now is       96.7 secs

     total energy              =    -712.78953261 Ry
     Harris-Foulkes estimate   =    -712.78953317 Ry
     estimated scf accuracy    <       0.00000029 Ry

     iteration # 11     ecut=    73.00 Ry     beta= 0.40
     Davidson diagonalization with overlap
     ethr =  3.27E-09,  avg # of iterations =  2.5

     negative rho (up, down):  2.245E-01 0.000E+00

     total cpu time spent up to now is      103.1 secs

     total energy              =    -712.78953267 Ry
     Harris-Foulkes estimate   =    -712.78953271 Ry
     estimated scf accuracy    <       0.00000002 Ry

     iteration # 12     ecut=    73.00 Ry     beta= 0.40
     Davidson diagonalization with overlap
     ethr =  2.17E-10,  avg # of iterations =  3.0

     negative rho (up, down):  2.245E-01 0.000E+00

     total cpu time spent up to now is      110.4 secs

     total energy              =    -712.78953269 Ry
     Harris-Foulkes estimate   =    -712.78953268 Ry
     estimated scf accuracy    <          1.1E-09 Ry

     iteration # 13     ecut=    73.00 Ry     beta= 0.40
     Davidson diagonalization with overlap
     ethr =  1.22E-11,  avg # of iterations =  2.7

     negative rho (up, down):  2.245E-01 0.000E+00

     total cpu time spent up to now is      117.3 secs

     End of self-consistent calculation

     Number of k-points >= 100: set verbosity='high' to print the bands.

     the Fermi energy is  -323.9574 ev

!    total energy              =    -712.78953268 Ry
     Harris-Foulkes estimate   =    -712.78953268 Ry
     estimated scf accuracy    <          2.4E-11 Ry

     total all-electron energy =    -16167.875308 Ry

     The total energy is the sum of the following terms:

     one-electron contribution =    -316.87026626 Ry
     hartree contribution      =      54.82522985 Ry
     xc contribution           =     -28.95927143 Ry
     ewald contribution        =     -36.56760676 Ry
     one-center paw contrib.   =    -385.20897066 Ry
     smearing contrib. (-TS)   =      -0.00864742 Ry

     convergence has been achieved in  13 iterations

     negative rho (up, down):  2.245E-01 0.000E+00

     Forces acting on atoms (cartesian axes, Ry/au):

     atom    1 type  1   force =     0.00000000    0.00000000    0.00000000
     atom    2 type  2   force =     0.00000000    0.00000000    0.00000000
     atom    3 type  3   force =     0.00000000    0.00000000   -0.00000000

     Total force =     0.000000     Total SCF correction =     0.000000


     Computing stress (Cartesian axis) and pressure


     negative rho (up, down):  2.245E-01 0.000E+00
          total   stress  (Ry/bohr**3)                   (kbar)     P=********
  -0.14345477   0.00000000   0.00000000     -21102.92      0.00      0.00
   0.00000000  -0.14345477  -0.00000000          0.00 -21102.92     -0.00
   0.00000000  -0.00000000  -0.14345477          0.00     -0.00 -21102.92


     Writing output data file NNaCs.save/

     init_run     :      3.35s CPU      3.68s WALL (       1 calls)
     electrons    :    107.78s CPU    111.84s WALL (       1 calls)
     forces       :      0.90s CPU      0.92s WALL (       1 calls)
     stress       :      2.06s CPU      2.08s WALL (       1 calls)

     Called by init_run:
     wfcinit      :      2.71s CPU      2.81s WALL (       1 calls)
     potinit      :      0.13s CPU      0.21s WALL (       1 calls)
     hinit0       :      0.38s CPU      0.49s WALL (       1 calls)

     Called by electrons:
     c_bands      :     90.61s CPU     93.37s WALL (      13 calls)
     sum_band     :     14.80s CPU     15.19s WALL (      13 calls)
     v_of_rho     :      0.40s CPU      0.49s WALL (      14 calls)
     newd         :      1.20s CPU      1.27s WALL (      14 calls)
     PAW_pot      :      0.77s CPU      1.58s WALL (      14 calls)
     mix_rho      :      0.12s CPU      0.12s WALL (      13 calls)

     Called by c_bands:
     init_us_2    :      2.69s CPU      2.79s WALL (    3190 calls)
     cegterg      :     87.07s CPU     89.71s WALL (    1430 calls)

     Called by sum_band:
     sum_band:bec :      0.05s CPU      0.05s WALL (    1430 calls)
     addusdens    :      1.02s CPU      1.04s WALL (      13 calls)

     Called by *egterg:
     h_psi        :     70.57s CPU     72.83s WALL (    8696 calls)
     s_psi        :      4.03s CPU      4.14s WALL (    8696 calls)
     g_psi        :      0.22s CPU      0.22s WALL (    7156 calls)
     cdiaghg      :      1.83s CPU      1.87s WALL (    8586 calls)

     Called by h_psi:
     h_psi:pot    :     69.96s CPU     72.20s WALL (    8696 calls)
     h_psi:calbec :      7.19s CPU      7.44s WALL (    8696 calls)
     vloc_psi     :     57.54s CPU     59.38s WALL (    8696 calls)
     add_vuspsi   :      5.16s CPU      5.33s WALL (    8696 calls)

     General routines
     calbec       :      8.98s CPU      9.27s WALL (   10676 calls)
     fft          :      0.18s CPU      0.21s WALL (     180 calls)
     ffts         :      0.01s CPU      0.01s WALL (      13 calls)
     fftw         :     44.80s CPU     46.27s WALL (  106030 calls)

     Parallel routines
     fft_scatt_xy :      6.67s CPU      6.88s WALL (  106223 calls)
     fft_scatt_yz :      7.98s CPU      8.35s WALL (  106223 calls)

     PWSCF        :  1m55.97s CPU     2m 0.57s WALL


   This run was terminated on:  13:30:52  23Oct2018            

=------------------------------------------------------------------------------=
   JOB DONE.
=------------------------------------------------------------------------------=
