
     Program PWSCF v.6.3MaX starts on 23Oct2018 at 15:42:12 

     This program is part of the open-source Quantum ESPRESSO suite
     for quantum simulation of materials; please cite
         "P. Giannozzi et al., J. Phys.:Condens. Matter 21 395502 (2009);
         "P. Giannozzi et al., J. Phys.:Condens. Matter 29 465901 (2017);
          URL http://www.quantum-espresso.org", 
     in publications or presentations arising from this work. More details at
     http://www.quantum-espresso.org/quote

     Parallel version (MPI), running on     8 processors

     MPI processes distributed on     1 nodes
     R & G space division:  proc/nbgrp/npool/nimage =       8
     Waiting for input...
     Reading input from standard input
Warning: card &CELL ignored
Warning: card                CELL_DYNAMICS = 'BFGS' , ignored
Warning: card / ignored

     Current dimensions of program PWSCF are:
     Max number of different atomic species (ntypx) = 10
     Max number of k-points (npk) =  40000
     Max angular momentum in pseudopotentials (lmaxx) =  3
               file N.pbe-n-kjpaw_psl.1.0.0.UPF: wavefunction(s)  2S renormalized
               file Na.pbe-spnl-kjpaw_psl.1.0.0.UPF: wavefunction(s)  2P renormalized

     Subspace diagonalization in iterative solution of the eigenvalue problem:
     a serial algorithm will be used


     Parallelization info
     --------------------
     sticks:   dense  smooth     PW     G-vecs:    dense   smooth      PW
     Min         280     280     81                 8838     8838    1370
     Max         281     281     82                 8841     8841    1374
     Sum        2245    2245    649                70721    70721   10969



     bravais-lattice index     =            2
     lattice parameter (alat)  =      14.3000  a.u.
     unit-cell volume          =     731.0518 (a.u.)^3
     number of atoms/cell      =            3
     number of atomic types    =            3
     number of electrons       =         9.00
     number of Kohn-Sham states=            9
     kinetic-energy cutoff     =      80.0000  Ry
     charge density cutoff     =     320.0000  Ry
     convergence threshold     =      1.0E-09
     mixing beta               =       0.4000
     number of iterations used =            8  plain     mixing
     Exchange-correlation      = SLA PW PBX PBC ( 1  4  3  4 0 0)

     celldm(1)=  14.300000  celldm(2)=   0.000000  celldm(3)=   0.000000
     celldm(4)=   0.000000  celldm(5)=   0.000000  celldm(6)=   0.000000

     crystal axes: (cart. coord. in units of alat)
               a(1) = (  -0.500000   0.000000   0.500000 )  
               a(2) = (   0.000000   0.500000   0.500000 )  
               a(3) = (  -0.500000   0.500000   0.000000 )  

     reciprocal axes: (cart. coord. in units 2 pi/alat)
               b(1) = ( -1.000000 -1.000000  1.000000 )  
               b(2) = (  1.000000  1.000000  1.000000 )  
               b(3) = ( -1.000000  1.000000 -1.000000 )  


     PseudoPot. # 1 for N  read from file:
     ./ps/N.pbe-n-kjpaw_psl.1.0.0.UPF
     MD5 check sum: 200139db3989ad6e773ddd42f12fc3a8
     Pseudo is Projector augmented-wave + core cor, Zval =  5.0
     Generated using "atomic" code by A. Dal Corso v.6.3
     Shape of augmentation charge: PSQ
     Using radial grid of 1085 points,  4 beta functions with: 
                l(1) =   0
                l(2) =   0
                l(3) =   1
                l(4) =   1
     Q(r) pseudized with 0 coefficients 


     PseudoPot. # 2 for Na read from file:
     ./ps/Na.pbe-spnl-kjpaw_psl.1.0.0.UPF
     MD5 check sum: 09e782c158f17eb2240230c4112357ee
     Pseudo is Projector augmented-wave + core cor, Zval =  9.0
     Generated using "atomic" code by A. Dal Corso v.6.3
     Shape of augmentation charge: PSQ
     Using radial grid of 1121 points,  4 beta functions with: 
                l(1) =   0
                l(2) =   0
                l(3) =   1
                l(4) =   1
     Q(r) pseudized with 0 coefficients 


     PseudoPot. # 3 for Cs read from file:
     ./ps/Cs.pbe-spnl-kjpaw_psl.1.0.0.UPF
     MD5 check sum: f98336d4a4407e24c1ab1e3bc36275e8
     Pseudo is Projector augmented-wave + core cor, Zval = -5.0
     Generated using "atomic" code by A. Dal Corso v.6.2.2
     Shape of augmentation charge: PSQ
     Using radial grid of 1251 points,  6 beta functions with: 
                l(1) =   0
                l(2) =   0
                l(3) =   1
                l(4) =   1
                l(5) =   2
                l(6) =   2
     Q(r) pseudized with 0 coefficients 


     atomic species   valence    mass     pseudopotential
        N              5.00    14.00670     N ( 1.00)
        Na             9.00    22.98977     Na( 1.00)
        Cs            -5.00   132.90545     Cs( 1.00)

     24 Sym. Ops. (no inversion) found



   Cartesian axes

     site n.     atom                  positions (alat units)
         1           N   tau(   1) = (   0.0000000   0.0000000   0.0000000  )
         2           Na  tau(   2) = (  -0.2500000   0.2500000   0.2500000  )
         3           Cs  tau(   3) = (  -0.7500000   0.7500000   0.7500000  )

     number of k points=   110  Methfessel-Paxton smearing, width (Ry)=  0.0200

     Number of k-points >= 100: set verbosity='high' to print them.

     Dense  grid:    70721 G-vectors     FFT dimensions: (  60,  60,  60)

     Estimated max dynamical RAM per process >      60.50 MB

     Estimated total dynamical RAM >     484.03 MB

     Check: negative/imaginary core charge=   -0.000002    0.000000

     Initial potential from superposition of free atoms

     starting charge   22.95298, renormalised to    9.00000
     Starting wfcs are   14 randomized atomic wfcs
     Checking if some PAW data can be deallocated... 

     total cpu time spent up to now is        5.5 secs

     Self-consistent Calculation

     iteration #  1     ecut=    80.00 Ry     beta= 0.40
     Davidson diagonalization with overlap
     ethr =  1.00E-02,  avg # of iterations =  5.0

     total cpu time spent up to now is       16.7 secs

     total energy              =    -722.53592650 Ry
     Harris-Foulkes estimate   =    -750.18564845 Ry
     estimated scf accuracy    <      48.00180109 Ry

     iteration #  2     ecut=    80.00 Ry     beta= 0.40
     Davidson diagonalization with overlap
     ethr =  1.00E-02,  avg # of iterations =  3.0

     total cpu time spent up to now is       24.9 secs

     total energy              =    -718.74732448 Ry
     Harris-Foulkes estimate   =    -725.54160430 Ry
     estimated scf accuracy    <       8.31620530 Ry

     iteration #  3     ecut=    80.00 Ry     beta= 0.40
     Davidson diagonalization with overlap
     ethr =  1.00E-02,  avg # of iterations =  7.3

     negative rho (up, down):  6.190E-02 0.000E+00

     total cpu time spent up to now is       36.6 secs

     total energy              =    -719.83692795 Ry
     Harris-Foulkes estimate   =    -720.03110486 Ry
     estimated scf accuracy    <       0.65113258 Ry

     iteration #  4     ecut=    80.00 Ry     beta= 0.40
     Davidson diagonalization with overlap
     ethr =  7.23E-03,  avg # of iterations =  1.6

     negative rho (up, down):  1.155E-01 0.000E+00

     total cpu time spent up to now is       42.1 secs

     total energy              =    -714.70210318 Ry
     Harris-Foulkes estimate   =    -720.14705486 Ry
     estimated scf accuracy    <      46.68577166 Ry

     iteration #  5     ecut=    80.00 Ry     beta= 0.40
     Davidson diagonalization with overlap
     ethr =  7.23E-03,  avg # of iterations =  2.0

     negative rho (up, down):  3.784E-01 0.000E+00

     total cpu time spent up to now is       48.1 secs

     total energy              =    -719.77596632 Ry
     Harris-Foulkes estimate   =    -720.26043280 Ry
     estimated scf accuracy    <       0.78198185 Ry

     iteration #  6     ecut=    80.00 Ry     beta= 0.40
     Davidson diagonalization with overlap
     ethr =  7.23E-03,  avg # of iterations =  1.1

     negative rho (up, down):  3.108E-01 0.000E+00

     total cpu time spent up to now is       53.4 secs

     total energy              =    -719.90777693 Ry
     Harris-Foulkes estimate   =    -719.82857407 Ry
     estimated scf accuracy    <       0.12377525 Ry

     iteration #  7     ecut=    80.00 Ry     beta= 0.40
     Davidson diagonalization with overlap
     ethr =  1.38E-03,  avg # of iterations =  2.1

     negative rho (up, down):  3.137E-01 0.000E+00

     total cpu time spent up to now is       59.7 secs

     total energy              =    -719.93710819 Ry
     Harris-Foulkes estimate   =    -719.92608912 Ry
     estimated scf accuracy    <       0.26790066 Ry

     iteration #  8     ecut=    80.00 Ry     beta= 0.40
     Davidson diagonalization with overlap
     ethr =  1.38E-03,  avg # of iterations =  1.0

     negative rho (up, down):  3.096E-01 0.000E+00

     total cpu time spent up to now is       65.0 secs

     total energy              =    -719.91785534 Ry
     Harris-Foulkes estimate   =    -719.93813462 Ry
     estimated scf accuracy    <       0.28171271 Ry

     iteration #  9     ecut=    80.00 Ry     beta= 0.40
     Davidson diagonalization with overlap
     ethr =  1.38E-03,  avg # of iterations =  1.0

     negative rho (up, down):  2.978E-01 0.000E+00

     total cpu time spent up to now is       70.2 secs

     total energy              =    -719.86315757 Ry
     Harris-Foulkes estimate   =    -719.91817053 Ry
     estimated scf accuracy    <       0.25584300 Ry

     iteration # 10     ecut=    80.00 Ry     beta= 0.40
     Davidson diagonalization with overlap
     ethr =  1.38E-03,  avg # of iterations =  1.0

     negative rho (up, down):  2.957E-01 0.000E+00

     total cpu time spent up to now is       75.4 secs

     total energy              =    -719.85610371 Ry
     Harris-Foulkes estimate   =    -719.86477464 Ry
     estimated scf accuracy    <       0.17797235 Ry

     iteration # 11     ecut=    80.00 Ry     beta= 0.40
     Davidson diagonalization with overlap
     ethr =  1.38E-03,  avg # of iterations =  1.0

     negative rho (up, down):  2.958E-01 0.000E+00

     total cpu time spent up to now is       80.7 secs

     total energy              =    -719.85868458 Ry
     Harris-Foulkes estimate   =    -719.85624008 Ry
     estimated scf accuracy    <       0.16789275 Ry

     iteration # 12     ecut=    80.00 Ry     beta= 0.40
     Davidson diagonalization with overlap
     ethr =  1.38E-03,  avg # of iterations =  1.0

     negative rho (up, down):  2.959E-01 0.000E+00

     total cpu time spent up to now is       85.9 secs

     total energy              =    -719.85792282 Ry
     Harris-Foulkes estimate   =    -719.85871215 Ry
     estimated scf accuracy    <       0.16897191 Ry

     iteration # 13     ecut=    80.00 Ry     beta= 0.40
     Davidson diagonalization with overlap
     ethr =  1.38E-03,  avg # of iterations =  1.0

     negative rho (up, down):  2.238E-01 0.000E+00

     total cpu time spent up to now is       91.2 secs

     total energy              =    -719.71157005 Ry
     Harris-Foulkes estimate   =    -719.85793160 Ry
     estimated scf accuracy    <       0.16794984 Ry

     iteration # 14     ecut=    80.00 Ry     beta= 0.40
     Davidson diagonalization with overlap
     ethr =  1.38E-03,  avg # of iterations =  2.0

     negative rho (up, down):  2.990E-01 0.000E+00

     total cpu time spent up to now is       97.2 secs

     total energy              =    -718.44921954 Ry
     Harris-Foulkes estimate   =    -722.43178384 Ry
     estimated scf accuracy    <      45.79529494 Ry

     iteration # 15     ecut=    80.00 Ry     beta= 0.40
     Davidson diagonalization with overlap
     ethr =  1.38E-03,  avg # of iterations =  2.0

     negative rho (up, down):  2.795E-01 0.000E+00

     total cpu time spent up to now is      103.2 secs

     total energy              =    -719.81086777 Ry
     Harris-Foulkes estimate   =    -719.85764645 Ry
     estimated scf accuracy    <       0.16158261 Ry

     iteration # 16     ecut=    80.00 Ry     beta= 0.40
     Davidson diagonalization with overlap
     ethr =  1.38E-03,  avg # of iterations =  1.0

     negative rho (up, down):  2.952E-01 0.000E+00

     total cpu time spent up to now is      108.4 secs

     total energy              =    -719.85577498 Ry
     Harris-Foulkes estimate   =    -719.81123180 Ry
     estimated scf accuracy    <       0.10805786 Ry

     iteration # 17     ecut=    80.00 Ry     beta= 0.40
     Davidson diagonalization with overlap
     ethr =  1.20E-03,  avg # of iterations =  1.0

     negative rho (up, down):  2.646E-01 0.000E+00

     total cpu time spent up to now is      113.6 secs

     total energy              =    -719.76944337 Ry
     Harris-Foulkes estimate   =    -719.85667343 Ry
     estimated scf accuracy    <       0.17046279 Ry

     iteration # 18     ecut=    80.00 Ry     beta= 0.40
     Davidson diagonalization with overlap
     ethr =  1.20E-03,  avg # of iterations =  1.0

     negative rho (up, down):  2.850E-01 0.000E+00

     total cpu time spent up to now is      118.8 secs

     total energy              =    -718.96978149 Ry
     Harris-Foulkes estimate   =    -720.13832253 Ry
     estimated scf accuracy    <      43.50691267 Ry

     iteration # 19     ecut=    80.00 Ry     beta= 0.40
     Davidson diagonalization with overlap
     ethr =  1.20E-03,  avg # of iterations =  1.0

     negative rho (up, down):  2.809E-01 0.000E+00

     total cpu time spent up to now is      124.1 secs

     total energy              =    -719.81477451 Ry
     Harris-Foulkes estimate   =    -719.82574988 Ry
     estimated scf accuracy    <       0.12360703 Ry

     iteration # 20     ecut=    80.00 Ry     beta= 0.40
     Davidson diagonalization with overlap
     ethr =  1.20E-03,  avg # of iterations =  1.0

     negative rho (up, down):  2.784E-01 0.000E+00

     total cpu time spent up to now is      129.3 secs

     total energy              =    -719.80905161 Ry
     Harris-Foulkes estimate   =    -719.81487617 Ry
     estimated scf accuracy    <       0.11120190 Ry

     iteration # 21     ecut=    80.00 Ry     beta= 0.40
     Davidson diagonalization with overlap
     ethr =  1.20E-03,  avg # of iterations =  1.0

     negative rho (up, down):  2.989E-01 0.000E+00

     total cpu time spent up to now is      134.4 secs

     total energy              =    -719.87163567 Ry
     Harris-Foulkes estimate   =    -719.80906810 Ry
     estimated scf accuracy    <       0.10380104 Ry

     iteration # 22     ecut=    80.00 Ry     beta= 0.40
     Davidson diagonalization with overlap
     ethr =  1.15E-03,  avg # of iterations =  1.0

     negative rho (up, down):  3.069E-01 0.000E+00

     total cpu time spent up to now is      139.7 secs

     total energy              =    -719.90283022 Ry
     Harris-Foulkes estimate   =    -719.87347387 Ry
     estimated scf accuracy    <       0.19489266 Ry

     iteration # 23     ecut=    80.00 Ry     beta= 0.40
     Davidson diagonalization with overlap
     ethr =  1.15E-03,  avg # of iterations =  1.0

     negative rho (up, down):  3.075E-01 0.000E+00

     total cpu time spent up to now is      145.0 secs

     total energy              =    -719.90665147 Ry
     Harris-Foulkes estimate   =    -719.90322441 Ry
     estimated scf accuracy    <       0.23587828 Ry

     iteration # 24     ecut=    80.00 Ry     beta= 0.40
     Davidson diagonalization with overlap
     ethr =  1.15E-03,  avg # of iterations =  1.0

     negative rho (up, down):  3.093E-01 0.000E+00

     total cpu time spent up to now is      150.2 secs

     total energy              =    -719.91440066 Ry
     Harris-Foulkes estimate   =    -719.90670695 Ry
     estimated scf accuracy    <       0.24185375 Ry

     iteration # 25     ecut=    80.00 Ry     beta= 0.40
     Davidson diagonalization with overlap
     ethr =  1.15E-03,  avg # of iterations =  1.0

     negative rho (up, down):  3.067E-01 0.000E+00

     total cpu time spent up to now is      155.4 secs

     total energy              =    -719.90303579 Ry
     Harris-Foulkes estimate   =    -719.91444966 Ry
     estimated scf accuracy    <       0.25353549 Ry

     iteration # 26     ecut=    80.00 Ry     beta= 0.40
     Davidson diagonalization with overlap
     ethr =  1.15E-03,  avg # of iterations =  1.0

     negative rho (up, down):  3.024E-01 0.000E+00

     total cpu time spent up to now is      160.7 secs

     total energy              =    -719.88592536 Ry
     Harris-Foulkes estimate   =    -719.90308179 Ry
     estimated scf accuracy    <       0.23792323 Ry

     iteration # 27     ecut=    80.00 Ry     beta= 0.40
     Davidson diagonalization with overlap
     ethr =  1.15E-03,  avg # of iterations =  1.0

     negative rho (up, down):  2.179E-01 0.000E+00

     total cpu time spent up to now is      165.9 secs

     total energy              =    -719.69286764 Ry
     Harris-Foulkes estimate   =    -719.88604380 Ry
     estimated scf accuracy    <       0.21317764 Ry

     iteration # 28     ecut=    80.00 Ry     beta= 0.40
     Davidson diagonalization with overlap
     ethr =  1.15E-03,  avg # of iterations =  2.0

     negative rho (up, down):  3.445E-01 0.000E+00

     total cpu time spent up to now is      172.9 secs

     total energy              =    -715.92851778 Ry
     Harris-Foulkes estimate   =    -723.14537119 Ry
     estimated scf accuracy    <      46.61307932 Ry

     iteration # 29     ecut=    80.00 Ry     beta= 0.40
     Davidson diagonalization with overlap
     ethr =  1.15E-03,  avg # of iterations =  2.0

     negative rho (up, down):  3.672E-01 0.000E+00

     total cpu time spent up to now is      179.4 secs

     total energy              =    -720.22203730 Ry
     Harris-Foulkes estimate   =    -720.07505959 Ry
     estimated scf accuracy    <       0.46816116 Ry

     iteration # 30     ecut=    80.00 Ry     beta= 0.40
     Davidson diagonalization with overlap
     ethr =  1.15E-03,  avg # of iterations =  1.0

     negative rho (up, down):  3.247E-01 0.000E+00

     total cpu time spent up to now is      184.6 secs

     total energy              =    -719.96851261 Ry
     Harris-Foulkes estimate   =    -720.22679011 Ry
     estimated scf accuracy    <       0.67424815 Ry

     iteration # 31     ecut=    80.00 Ry     beta= 0.40
     Davidson diagonalization with overlap
     ethr =  1.15E-03,  avg # of iterations =  1.0

     negative rho (up, down):  3.269E-01 0.000E+00

     total cpu time spent up to now is      189.8 secs

     total energy              =    -719.98732828 Ry
     Harris-Foulkes estimate   =    -719.97583406 Ry
     estimated scf accuracy    <       0.34068419 Ry

     iteration # 32     ecut=    80.00 Ry     beta= 0.40
     Davidson diagonalization with overlap
     ethr =  1.15E-03,  avg # of iterations =  1.0

     negative rho (up, down):  3.253E-01 0.000E+00

     total cpu time spent up to now is      195.1 secs

     total energy              =    -719.97967376 Ry
     Harris-Foulkes estimate   =    -719.98779032 Ry
     estimated scf accuracy    <       0.35311121 Ry

     iteration # 33     ecut=    80.00 Ry     beta= 0.40
     Davidson diagonalization with overlap
     ethr =  1.15E-03,  avg # of iterations =  1.0

     negative rho (up, down):  3.319E-01 0.000E+00

     total cpu time spent up to now is      200.3 secs

     total energy              =    -720.01230645 Ry
     Harris-Foulkes estimate   =    -719.97980387 Ry
     estimated scf accuracy    <       0.34042011 Ry

     iteration # 34     ecut=    80.00 Ry     beta= 0.40
     Davidson diagonalization with overlap
     ethr =  1.15E-03,  avg # of iterations =  1.0

     negative rho (up, down):  3.286E-01 0.000E+00

     total cpu time spent up to now is      205.5 secs

     total energy              =    -719.99251198 Ry
     Harris-Foulkes estimate   =    -720.01256733 Ry
     estimated scf accuracy    <       0.38489452 Ry

     iteration # 35     ecut=    80.00 Ry     beta= 0.40
     Davidson diagonalization with overlap
     ethr =  1.15E-03,  avg # of iterations =  1.0

     negative rho (up, down):  3.296E-01 0.000E+00

     total cpu time spent up to now is      210.8 secs

     total energy              =    -719.99427809 Ry
     Harris-Foulkes estimate   =    -719.99255989 Ry
     estimated scf accuracy    <       0.36294974 Ry

     iteration # 36     ecut=    80.00 Ry     beta= 0.40
     Davidson diagonalization with overlap
     ethr =  1.15E-03,  avg # of iterations =  1.0

     negative rho (up, down):  3.262E-01 0.000E+00

     total cpu time spent up to now is      216.0 secs

     total energy              =    -719.97933625 Ry
     Harris-Foulkes estimate   =    -719.99444916 Ry
     estimated scf accuracy    <       0.37685822 Ry

     iteration # 37     ecut=    80.00 Ry     beta= 0.40
     Davidson diagonalization with overlap
     ethr =  1.15E-03,  avg # of iterations =  1.0

     negative rho (up, down):  2.001E-01 0.000E+00

     total cpu time spent up to now is      221.1 secs

     total energy              =    -719.66073570 Ry
     Harris-Foulkes estimate   =    -719.97938372 Ry
     estimated scf accuracy    <       0.35695029 Ry

     iteration # 38     ecut=    80.00 Ry     beta= 0.40
     Davidson diagonalization with overlap
     ethr =  1.15E-03,  avg # of iterations =  2.0

     negative rho (up, down):  3.160E-01 0.000E+00

     total cpu time spent up to now is      228.3 secs

     total energy              =    -717.38851505 Ry
     Harris-Foulkes estimate   =    -723.50491879 Ry
     estimated scf accuracy    <      47.19003111 Ry

     iteration # 39     ecut=    80.00 Ry     beta= 0.40
     Davidson diagonalization with overlap
     ethr =  1.15E-03,  avg # of iterations =  2.0

     negative rho (up, down):  3.052E-01 0.000E+00

     total cpu time spent up to now is      234.8 secs

     total energy              =    -719.88919858 Ry
     Harris-Foulkes estimate   =    -719.93344820 Ry
     estimated scf accuracy    <       0.28569150 Ry

     iteration # 40     ecut=    80.00 Ry     beta= 0.40
     Davidson diagonalization with overlap
     ethr =  1.15E-03,  avg # of iterations =  1.0

     negative rho (up, down):  3.207E-01 0.000E+00

     total cpu time spent up to now is      240.0 secs

     total energy              =    -719.95295477 Ry
     Harris-Foulkes estimate   =    -719.89065838 Ry
     estimated scf accuracy    <       0.22050043 Ry

     iteration # 41     ecut=    80.00 Ry     beta= 0.40
     Davidson diagonalization with overlap
     ethr =  1.15E-03,  avg # of iterations =  1.0

     negative rho (up, down):  3.372E-01 0.000E+00

     total cpu time spent up to now is      245.2 secs

     total energy              =    -720.02884037 Ry
     Harris-Foulkes estimate   =    -719.95389480 Ry
     estimated scf accuracy    <       0.30368007 Ry

     iteration # 42     ecut=    80.00 Ry     beta= 0.40
     Davidson diagonalization with overlap
     ethr =  1.15E-03,  avg # of iterations =  1.0

     negative rho (up, down):  2.919E-01 0.000E+00

     total cpu time spent up to now is      250.5 secs

     total energy              =    -719.85033055 Ry
     Harris-Foulkes estimate   =    -720.02962433 Ry
     estimated scf accuracy    <       0.39915310 Ry

     iteration # 43     ecut=    80.00 Ry     beta= 0.40
     Davidson diagonalization with overlap
     ethr =  1.15E-03,  avg # of iterations =  1.0

     negative rho (up, down):  3.260E-01 0.000E+00

     total cpu time spent up to now is      255.7 secs

     total energy              =    -719.97864844 Ry
     Harris-Foulkes estimate   =    -719.85377102 Ry
     estimated scf accuracy    <       0.16936155 Ry

     iteration # 44     ecut=    80.00 Ry     beta= 0.40
     Davidson diagonalization with overlap
     ethr =  1.15E-03,  avg # of iterations =  1.0

     negative rho (up, down):  2.717E-01 0.000E+00

     total cpu time spent up to now is      260.9 secs

     total energy              =    -719.78831535 Ry
     Harris-Foulkes estimate   =    -719.98105934 Ry
     estimated scf accuracy    <       0.33501417 Ry

     iteration # 45     ecut=    80.00 Ry     beta= 0.40
     Davidson diagonalization with overlap
     ethr =  1.15E-03,  avg # of iterations =  1.0

     negative rho (up, down):  2.870E-01 0.000E+00

     total cpu time spent up to now is      266.1 secs

     total energy              =    -719.85171181 Ry
     Harris-Foulkes estimate   =    -719.79284794 Ry
     estimated scf accuracy    <       0.21207771 Ry

     iteration # 46     ecut=    80.00 Ry     beta= 0.40
     Davidson diagonalization with overlap
     ethr =  1.15E-03,  avg # of iterations =  1.0

     negative rho (up, down):  2.571E-01 0.000E+00

     total cpu time spent up to now is      271.4 secs

     total energy              =    -719.76552353 Ry
     Harris-Foulkes estimate   =    -719.83604822 Ry
     estimated scf accuracy    <       0.13728447 Ry

     iteration # 47     ecut=    80.00 Ry     beta= 0.40
     Davidson diagonalization with overlap
     ethr =  1.15E-03,  avg # of iterations =  1.0

     negative rho (up, down):  2.420E-01 0.000E+00

     total cpu time spent up to now is      276.6 secs

     total energy              =    -721.13079304 Ry
     Harris-Foulkes estimate   =    -720.30971380 Ry
     estimated scf accuracy    <      43.50628717 Ry

     iteration # 48     ecut=    80.00 Ry     beta= 0.40
     Davidson diagonalization with overlap
     ethr =  1.15E-03,  avg # of iterations =  1.0

     negative rho (up, down):  2.474E-01 0.000E+00

     total cpu time spent up to now is      281.8 secs

     total energy              =    -720.85494195 Ry
     Harris-Foulkes estimate   =    -721.12953528 Ry
     estimated scf accuracy    <      44.27584809 Ry

     iteration # 49     ecut=    80.00 Ry     beta= 0.40
     Davidson diagonalization with overlap
     ethr =  1.15E-03,  avg # of iterations =  1.0

     negative rho (up, down):  2.506E-01 0.000E+00

     total cpu time spent up to now is      287.0 secs

     total energy              =    -720.69366712 Ry
     Harris-Foulkes estimate   =    -720.85507311 Ry
     estimated scf accuracy    <      43.96851196 Ry

     iteration # 50     ecut=    80.00 Ry     beta= 0.40
     Davidson diagonalization with overlap
     ethr =  1.15E-03,  avg # of iterations =  1.0

     negative rho (up, down):  2.792E-01 0.000E+00

     total cpu time spent up to now is      292.3 secs

     total energy              =    -719.25120007 Ry
     Harris-Foulkes estimate   =    -720.69370713 Ry
     estimated scf accuracy    <      43.77610859 Ry

     iteration # 51     ecut=    80.00 Ry     beta= 0.40
     Davidson diagonalization with overlap
     ethr =  1.15E-03,  avg # of iterations =  1.0

     negative rho (up, down):  2.638E-01 0.000E+00

     total cpu time spent up to now is      297.5 secs

     total energy              =    -719.77731671 Ry
     Harris-Foulkes estimate   =    -719.81168756 Ry
     estimated scf accuracy    <       0.10180956 Ry

     iteration # 52     ecut=    80.00 Ry     beta= 0.40
     Davidson diagonalization with overlap
     ethr =  1.13E-03,  avg # of iterations =  1.0

     negative rho (up, down):  2.850E-01 0.000E+00

     total cpu time spent up to now is      302.7 secs

     total energy              =    -719.05639582 Ry
     Harris-Foulkes estimate   =    -720.03164044 Ry
     estimated scf accuracy    <      33.56793842 Ry

     iteration # 53     ecut=    80.00 Ry     beta= 0.40
     Davidson diagonalization with overlap
     ethr =  1.13E-03,  avg # of iterations =  1.0

     negative rho (up, down):  2.769E-01 0.000E+00

     total cpu time spent up to now is      308.0 secs

     total energy              =    -719.80796922 Ry
     Harris-Foulkes estimate   =    -719.82903744 Ry
     estimated scf accuracy    <       0.12677092 Ry

     iteration # 54     ecut=    80.00 Ry     beta= 0.40
     Davidson diagonalization with overlap
     ethr =  1.13E-03,  avg # of iterations =  1.0

     negative rho (up, down):  2.737E-01 0.000E+00

     total cpu time spent up to now is      313.2 secs

     total energy              =    -719.80060688 Ry
     Harris-Foulkes estimate   =    -719.80817789 Ry
     estimated scf accuracy    <       0.10014869 Ry

     iteration # 55     ecut=    80.00 Ry     beta= 0.40
     Davidson diagonalization with overlap
     ethr =  1.11E-03,  avg # of iterations =  1.0

     negative rho (up, down):  2.591E-01 0.000E+00

     total cpu time spent up to now is      318.3 secs

     total energy              =    -719.75816704 Ry
     Harris-Foulkes estimate   =    -719.80017877 Ry
     estimated scf accuracy    <       0.15939143 Ry

     iteration # 56     ecut=    80.00 Ry     beta= 0.40
     Davidson diagonalization with overlap
     ethr =  1.11E-03,  avg # of iterations =  1.0

     negative rho (up, down):  2.866E-01 0.000E+00

     total cpu time spent up to now is      323.5 secs

     total energy              =    -718.78838820 Ry
     Harris-Foulkes estimate   =    -720.22878331 Ry
     estimated scf accuracy    <      45.24021051 Ry

     iteration # 57     ecut=    80.00 Ry     beta= 0.40
     Davidson diagonalization with overlap
     ethr =  1.11E-03,  avg # of iterations =  1.0

     negative rho (up, down):  2.842E-01 0.000E+00

     total cpu time spent up to now is      328.6 secs

     total energy              =    -719.82757394 Ry
     Harris-Foulkes estimate   =    -719.83450817 Ry
     estimated scf accuracy    <       0.13582012 Ry

     iteration # 58     ecut=    80.00 Ry     beta= 0.40
     Davidson diagonalization with overlap
     ethr =  1.11E-03,  avg # of iterations =  1.0

     negative rho (up, down):  3.140E-01 0.000E+00

     total cpu time spent up to now is      333.8 secs

     total energy              =    -719.92529592 Ry
     Harris-Foulkes estimate   =    -719.82773827 Ry
     estimated scf accuracy    <       0.12729219 Ry

     iteration # 59     ecut=    80.00 Ry     beta= 0.40
     Davidson diagonalization with overlap
     ethr =  1.11E-03,  avg # of iterations =  1.0

     negative rho (up, down):  2.590E-01 0.000E+00

     total cpu time spent up to now is      339.0 secs

     total energy              =    -719.75911898 Ry
     Harris-Foulkes estimate   =    -719.92884297 Ry
     estimated scf accuracy    <       0.27078617 Ry

     iteration # 60     ecut=    80.00 Ry     beta= 0.40
     Davidson diagonalization with overlap
     ethr =  1.11E-03,  avg # of iterations =  2.0

     negative rho (up, down):  2.941E-01 0.000E+00

     total cpu time spent up to now is      344.8 secs

     total energy              =    -718.41706618 Ry
     Harris-Foulkes estimate   =    -720.24236276 Ry
     estimated scf accuracy    <      44.70021616 Ry

     iteration # 61     ecut=    80.00 Ry     beta= 0.40
     Davidson diagonalization with overlap
     ethr =  1.11E-03,  avg # of iterations =  1.0

     negative rho (up, down):  2.987E-01 0.000E+00

     total cpu time spent up to now is      350.0 secs

     total energy              =    -719.87217181 Ry
     Harris-Foulkes estimate   =    -719.85723669 Ry
     estimated scf accuracy    <       0.16700792 Ry

     iteration # 62     ecut=    80.00 Ry     beta= 0.40
     Davidson diagonalization with overlap
     ethr =  1.11E-03,  avg # of iterations =  1.0

     negative rho (up, down):  2.993E-01 0.000E+00

     total cpu time spent up to now is      355.2 secs

     total energy              =    -719.87450431 Ry
     Harris-Foulkes estimate   =    -719.87261322 Ry
     estimated scf accuracy    <       0.18817734 Ry

     iteration # 63     ecut=    80.00 Ry     beta= 0.40
     Davidson diagonalization with overlap
     ethr =  1.11E-03,  avg # of iterations =  1.0

     negative rho (up, down):  3.052E-01 0.000E+00

     total cpu time spent up to now is      360.4 secs

     total energy              =    -719.89575394 Ry
     Harris-Foulkes estimate   =    -719.87461547 Ry
     estimated scf accuracy    <       0.19263237 Ry

     iteration # 64     ecut=    80.00 Ry     beta= 0.40
     Davidson diagonalization with overlap
     ethr =  1.11E-03,  avg # of iterations =  1.0

     negative rho (up, down):  2.960E-01 0.000E+00

     total cpu time spent up to now is      365.6 secs

     total energy              =    -719.86398640 Ry
     Harris-Foulkes estimate   =    -719.89604108 Ry
     estimated scf accuracy    <       0.22485214 Ry

     iteration # 65     ecut=    80.00 Ry     beta= 0.40
     Davidson diagonalization with overlap
     ethr =  1.11E-03,  avg # of iterations =  1.0

     negative rho (up, down):  3.058E-01 0.000E+00

     total cpu time spent up to now is      370.9 secs

     total energy              =    -719.90222997 Ry
     Harris-Foulkes estimate   =    -719.86423056 Ry
     estimated scf accuracy    <       0.18289125 Ry

     iteration # 66     ecut=    80.00 Ry     beta= 0.40
     Davidson diagonalization with overlap
     ethr =  1.11E-03,  avg # of iterations =  1.0

     negative rho (up, down):  3.043E-01 0.000E+00

     total cpu time spent up to now is      376.1 secs

     total energy              =    -719.89377745 Ry
     Harris-Foulkes estimate   =    -719.90252223 Ry
     estimated scf accuracy    <       0.23338057 Ry

     iteration # 67     ecut=    80.00 Ry     beta= 0.40
     Davidson diagonalization with overlap
     ethr =  1.11E-03,  avg # of iterations =  1.0

     negative rho (up, down):  3.174E-01 0.000E+00

     total cpu time spent up to now is      381.3 secs

     total energy              =    -719.95325545 Ry
     Harris-Foulkes estimate   =    -719.89382555 Ry
     estimated scf accuracy    <       0.22224742 Ry

     iteration # 68     ecut=    80.00 Ry     beta= 0.40
     Davidson diagonalization with overlap
     ethr =  1.11E-03,  avg # of iterations =  1.0

     negative rho (up, down):  3.245E-01 0.000E+00

     total cpu time spent up to now is      386.5 secs

     total energy              =    -719.98313923 Ry
     Harris-Foulkes estimate   =    -719.95447152 Ry
     estimated scf accuracy    <       0.31030964 Ry

     iteration # 69     ecut=    80.00 Ry     beta= 0.40
     Davidson diagonalization with overlap
     ethr =  1.11E-03,  avg # of iterations =  1.0

     negative rho (up, down):  2.106E-01 0.000E+00

     total cpu time spent up to now is      391.6 secs

     total energy              =    -719.67954412 Ry
     Harris-Foulkes estimate   =    -719.98334586 Ry
     estimated scf accuracy    <       0.34703819 Ry

     iteration # 70     ecut=    80.00 Ry     beta= 0.40
     Davidson diagonalization with overlap
     ethr =  1.11E-03,  avg # of iterations =  2.0

     negative rho (up, down):  3.295E-01 0.000E+00

     total cpu time spent up to now is      398.8 secs

     total energy              =    -716.67341023 Ry
     Harris-Foulkes estimate   =    -722.90138100 Ry
     estimated scf accuracy    <      46.43283015 Ry

     iteration # 71     ecut=    80.00 Ry     beta= 0.40
     Davidson diagonalization with overlap
     ethr =  1.11E-03,  avg # of iterations =  2.0

     negative rho (up, down):  3.175E-01 0.000E+00

     total cpu time spent up to now is      405.3 secs

     total energy              =    -719.94488564 Ry
     Harris-Foulkes estimate   =    -719.99850352 Ry
     estimated scf accuracy    <       0.36584575 Ry

     iteration # 72     ecut=    80.00 Ry     beta= 0.40
     Davidson diagonalization with overlap
     ethr =  1.11E-03,  avg # of iterations =  1.0

     negative rho (up, down):  3.361E-01 0.000E+00

     total cpu time spent up to now is      410.6 secs

     total energy              =    -720.02078889 Ry
     Harris-Foulkes estimate   =    -719.94583574 Ry
     estimated scf accuracy    <       0.29659401 Ry

     iteration # 73     ecut=    80.00 Ry     beta= 0.40
     Davidson diagonalization with overlap
     ethr =  1.11E-03,  avg # of iterations =  1.0

     negative rho (up, down):  3.477E-01 0.000E+00

     total cpu time spent up to now is      415.8 secs

     total energy              =    -720.06080483 Ry
     Harris-Foulkes estimate   =    -720.02125745 Ry
     estimated scf accuracy    <       0.38811555 Ry

     iteration # 74     ecut=    80.00 Ry     beta= 0.40
     Davidson diagonalization with overlap
     ethr =  1.11E-03,  avg # of iterations =  1.0

     negative rho (up, down):  4.083E-01 0.000E+00

     total cpu time spent up to now is      421.0 secs

     total energy              =    -720.48903589 Ry
     Harris-Foulkes estimate   =    -720.06106081 Ry
     estimated scf accuracy    <       0.43175296 Ry

     iteration # 75     ecut=    80.00 Ry     beta= 0.40
     Davidson diagonalization with overlap
     ethr =  1.11E-03,  avg # of iterations =  2.0

     negative rho (up, down):  3.217E-01 0.000E+00

     total cpu time spent up to now is      427.2 secs

     total energy              =    -719.92356461 Ry
     Harris-Foulkes estimate   =    -720.52338783 Ry
     estimated scf accuracy    <       1.13837270 Ry

     iteration # 76     ecut=    80.00 Ry     beta= 0.40
     Davidson diagonalization with overlap
     ethr =  1.11E-03,  avg # of iterations =  2.0

     negative rho (up, down):  3.122E-01 0.000E+00

     total cpu time spent up to now is      434.1 secs

     total energy              =    -719.91636343 Ry
     Harris-Foulkes estimate   =    -719.96079448 Ry
     estimated scf accuracy    <       0.31932506 Ry

     iteration # 77     ecut=    80.00 Ry     beta= 0.40
     Davidson diagonalization with overlap
     ethr =  1.11E-03,  avg # of iterations =  1.0

     negative rho (up, down):  3.475E-01 0.000E+00

     total cpu time spent up to now is      439.3 secs

     total energy              =    -720.08307643 Ry
     Harris-Foulkes estimate   =    -719.91724990 Ry
     estimated scf accuracy    <       0.25802581 Ry

     iteration # 78     ecut=    80.00 Ry     beta= 0.40
     Davidson diagonalization with overlap
     ethr =  1.11E-03,  avg # of iterations =  1.0

     negative rho (up, down):  3.392E-01 0.000E+00

     total cpu time spent up to now is      444.5 secs

     total energy              =    -720.04308369 Ry
     Harris-Foulkes estimate   =    -720.08720130 Ry
     estimated scf accuracy    <       0.48463806 Ry

     iteration # 79     ecut=    80.00 Ry     beta= 0.40
     Davidson diagonalization with overlap
     ethr =  1.11E-03,  avg # of iterations =  1.0

     negative rho (up, down):  2.135E-01 0.000E+00

     total cpu time spent up to now is      449.7 secs

     total energy              =    -719.66518237 Ry
     Harris-Foulkes estimate   =    -720.04344996 Ry
     estimated scf accuracy    <       0.43088223 Ry

     iteration # 80     ecut=    80.00 Ry     beta= 0.40
     Davidson diagonalization with overlap
     ethr =  1.11E-03,  avg # of iterations =  2.0

     negative rho (up, down):  3.794E-01 0.000E+00

     total cpu time spent up to now is      456.8 secs

     total energy              =    -714.30512425 Ry
     Harris-Foulkes estimate   =    -722.86008930 Ry
     estimated scf accuracy    <      46.37771713 Ry

     iteration # 81     ecut=    80.00 Ry     beta= 0.40
     Davidson diagonalization with overlap
     ethr =  1.11E-03,  avg # of iterations =  2.0

     negative rho (up, down):  3.274E-01 0.000E+00

     total cpu time spent up to now is      463.6 secs

     total energy              =    -719.97459223 Ry
     Harris-Foulkes estimate   =    -720.28240034 Ry
     estimated scf accuracy    <       0.75689848 Ry

     iteration # 82     ecut=    80.00 Ry     beta= 0.40
     Davidson diagonalization with overlap
     ethr =  1.11E-03,  avg # of iterations =  2.0

     negative rho (up, down):  3.232E-01 0.000E+00

     total cpu time spent up to now is      469.8 secs

     total energy              =    -719.96485300 Ry
     Harris-Foulkes estimate   =    -719.98424885 Ry
     estimated scf accuracy    <       0.34995069 Ry

     iteration # 83     ecut=    80.00 Ry     beta= 0.40
     Davidson diagonalization with overlap
     ethr =  1.11E-03,  avg # of iterations =  1.0

     negative rho (up, down):  3.232E-01 0.000E+00

     total cpu time spent up to now is      475.1 secs

     total energy              =    -719.96413198 Ry
     Harris-Foulkes estimate   =    -719.96521623 Ry
     estimated scf accuracy    <       0.32429489 Ry

     iteration # 84     ecut=    80.00 Ry     beta= 0.40
     Davidson diagonalization with overlap
     ethr =  1.11E-03,  avg # of iterations =  1.0

     negative rho (up, down):  3.254E-01 0.000E+00

     total cpu time spent up to now is      480.3 secs

     total energy              =    -719.97393729 Ry
     Harris-Foulkes estimate   =    -719.96423427 Ry
     estimated scf accuracy    <       0.32083101 Ry

     iteration # 85     ecut=    80.00 Ry     beta= 0.40
     Davidson diagonalization with overlap
     ethr =  1.11E-03,  avg # of iterations =  1.0

     negative rho (up, down):  3.196E-01 0.000E+00

     total cpu time spent up to now is      485.5 secs

     total energy              =    -719.94768354 Ry
     Harris-Foulkes estimate   =    -719.97398420 Ry
     estimated scf accuracy    <       0.33294811 Ry

     iteration # 86     ecut=    80.00 Ry     beta= 0.40
     Davidson diagonalization with overlap
     ethr =  1.11E-03,  avg # of iterations =  1.0

     negative rho (up, down):  2.691E-01 0.000E+00

     total cpu time spent up to now is      490.6 secs

     total energy              =    -719.77518055 Ry
     Harris-Foulkes estimate   =    -719.94780876 Ry
     estimated scf accuracy    <       0.29753765 Ry

     iteration # 87     ecut=    80.00 Ry     beta= 0.40
     Davidson diagonalization with overlap
     ethr =  1.11E-03,  avg # of iterations =  2.0

     negative rho (up, down):  2.972E-01 0.000E+00

     total cpu time spent up to now is      496.6 secs

     total energy              =    -718.85040192 Ry
     Harris-Foulkes estimate   =    -719.86083428 Ry
     estimated scf accuracy    <      20.77012120 Ry

     iteration # 88     ecut=    80.00 Ry     beta= 0.40
     Davidson diagonalization with overlap
     ethr =  1.11E-03,  avg # of iterations =  1.0

     negative rho (up, down):  2.886E-01 0.000E+00

     total cpu time spent up to now is      501.8 secs

     total energy              =    -719.83561533 Ry
     Harris-Foulkes estimate   =    -719.86350663 Ry
     estimated scf accuracy    <       0.17517664 Ry

     iteration # 89     ecut=    80.00 Ry     beta= 0.40
     Davidson diagonalization with overlap
     ethr =  1.11E-03,  avg # of iterations =  1.0

     negative rho (up, down):  2.598E-01 0.000E+00

     total cpu time spent up to now is      507.0 secs

     total energy              =    -719.76364292 Ry
     Harris-Foulkes estimate   =    -719.83589158 Ry
     estimated scf accuracy    <       0.13927713 Ry

     iteration # 90     ecut=    80.00 Ry     beta= 0.40
     Davidson diagonalization with overlap
     ethr =  1.11E-03,  avg # of iterations =  1.0

     negative rho (up, down):  2.846E-01 0.000E+00

     total cpu time spent up to now is      512.3 secs

     total energy              =    -719.05735660 Ry
     Harris-Foulkes estimate   =    -720.31737290 Ry
     estimated scf accuracy    <      43.37777358 Ry

     iteration # 91     ecut=    80.00 Ry     beta= 0.40
     Davidson diagonalization with overlap
     ethr =  1.11E-03,  avg # of iterations =  1.0

     negative rho (up, down):  2.318E-01 0.000E+00

     total cpu time spent up to now is      517.5 secs

     total energy              =    -719.72975257 Ry
     Harris-Foulkes estimate   =    -719.82174010 Ry
     estimated scf accuracy    <       0.11366886 Ry

     iteration # 92     ecut=    80.00 Ry     beta= 0.40
     Davidson diagonalization with overlap
     ethr =  1.11E-03,  avg # of iterations =  2.0

     negative rho (up, down):  2.962E-01 0.000E+00

     total cpu time spent up to now is      523.3 secs

     total energy              =    -718.41264021 Ry
     Harris-Foulkes estimate   =    -721.85309879 Ry
     estimated scf accuracy    <      45.13249542 Ry

     iteration # 93     ecut=    80.00 Ry     beta= 0.40
     Davidson diagonalization with overlap
     ethr =  1.11E-03,  avg # of iterations =  2.0

     negative rho (up, down):  3.029E-01 0.000E+00

     total cpu time spent up to now is      529.4 secs

     total energy              =    -719.88289468 Ry
     Harris-Foulkes estimate   =    -719.85928978 Ry
     estimated scf accuracy    <       0.17120288 Ry

     iteration # 94     ecut=    80.00 Ry     beta= 0.40
     Davidson diagonalization with overlap
     ethr =  1.11E-03,  avg # of iterations =  1.0

     negative rho (up, down):  3.053E-01 0.000E+00

     total cpu time spent up to now is      534.6 secs

     total energy              =    -719.89090869 Ry
     Harris-Foulkes estimate   =    -719.88337199 Ry
     estimated scf accuracy    <       0.20266345 Ry

     iteration # 95     ecut=    80.00 Ry     beta= 0.40
     Davidson diagonalization with overlap
     ethr =  1.11E-03,  avg # of iterations =  1.0

     negative rho (up, down):  2.632E-01 0.000E+00

     total cpu time spent up to now is      539.8 secs

     total energy              =    -719.76849227 Ry
     Harris-Foulkes estimate   =    -719.89108085 Ry
     estimated scf accuracy    <       0.21364394 Ry

     iteration # 96     ecut=    80.00 Ry     beta= 0.40
     Davidson diagonalization with overlap
     ethr =  1.11E-03,  avg # of iterations =  1.0

     negative rho (up, down):  3.515E-01 0.000E+00

     total cpu time spent up to now is      544.9 secs

     total energy              =    -715.62888913 Ry
     Harris-Foulkes estimate   =    -720.12739309 Ry
     estimated scf accuracy    <      43.00799185 Ry

     iteration # 97     ecut=    80.00 Ry     beta= 0.40
     Davidson diagonalization with overlap
     ethr =  1.11E-03,  avg # of iterations =  2.0

     negative rho (up, down):  2.844E-01 0.000E+00

     total cpu time spent up to now is      551.2 secs

     total energy              =    -719.80846993 Ry
     Harris-Foulkes estimate   =    -720.11403819 Ry
     estimated scf accuracy    <       0.52140846 Ry

     iteration # 98     ecut=    80.00 Ry     beta= 0.40
     Davidson diagonalization with overlap
     ethr =  1.11E-03,  avg # of iterations =  2.0

     negative rho (up, down):  2.701E-01 0.000E+00

     total cpu time spent up to now is      557.2 secs

     total energy              =    -719.78660389 Ry
     Harris-Foulkes estimate   =    -719.82338958 Ry
     estimated scf accuracy    <       0.12339928 Ry

     iteration # 99     ecut=    80.00 Ry     beta= 0.40
     Davidson diagonalization with overlap
     ethr =  1.11E-03,  avg # of iterations =  1.0

     negative rho (up, down):  2.947E-01 0.000E+00

     total cpu time spent up to now is      562.4 secs

     total energy              =    -719.18717877 Ry
     Harris-Foulkes estimate   =    -719.82671437 Ry
     estimated scf accuracy    <      10.98239223 Ry

     iteration #100     ecut=    80.00 Ry     beta= 0.40
     Davidson diagonalization with overlap
     ethr =  1.11E-03,  avg # of iterations =  1.0

     negative rho (up, down):  2.990E-01 0.000E+00

     total cpu time spent up to now is      567.6 secs

     total energy              =    -719.86939470 Ry
     Harris-Foulkes estimate   =    -719.85487156 Ry
     estimated scf accuracy    <       0.16244691 Ry

     End of self-consistent calculation

     convergence NOT achieved after 100 iterations: stopping

     Writing output data file NNaCs.save/

     init_run     :      3.45s CPU      3.71s WALL (       1 calls)
     electrons    :    539.96s CPU    562.05s WALL (       1 calls)

     Called by init_run:
     wfcinit      :      2.76s CPU      2.85s WALL (       1 calls)
     potinit      :      0.13s CPU      0.20s WALL (       1 calls)
     hinit0       :      0.40s CPU      0.49s WALL (       1 calls)

     Called by electrons:
     c_bands      :    402.07s CPU    413.79s WALL (     100 calls)
     sum_band     :    118.56s CPU    121.98s WALL (     100 calls)
     v_of_rho     :      2.86s CPU      3.70s WALL (     101 calls)
     newd         :      9.86s CPU      9.93s WALL (     101 calls)
     PAW_pot      :      5.25s CPU     11.26s WALL (     101 calls)
     mix_rho      :      1.26s CPU      1.30s WALL (     100 calls)

     Called by c_bands:
     init_us_2    :     18.47s CPU     19.06s WALL (   22110 calls)
     cegterg      :    372.32s CPU    382.76s WALL (   11000 calls)

     Called by sum_band:
     sum_band:bec :      0.38s CPU      0.40s WALL (   11000 calls)
     addusdens    :      8.72s CPU      8.74s WALL (     100 calls)

     Called by *egterg:
     h_psi        :    313.12s CPU    322.05s WALL (   25867 calls)
     s_psi        :     18.84s CPU     19.30s WALL (   25867 calls)
     g_psi        :      0.75s CPU      0.76s WALL (   14757 calls)
     cdiaghg      :      3.79s CPU      3.88s WALL (   25757 calls)

     Called by h_psi:
     h_psi:pot    :    310.69s CPU    319.54s WALL (   25867 calls)
     h_psi:calbec :     27.89s CPU     28.85s WALL (   25867 calls)
     vloc_psi     :    262.07s CPU    269.38s WALL (   25867 calls)
     add_vuspsi   :     20.50s CPU     21.11s WALL (   25867 calls)

     General routines
     calbec       :     39.30s CPU     40.80s WALL (   36867 calls)
     fft          :      1.23s CPU      1.49s WALL (    1113 calls)
     ffts         :      0.12s CPU      0.12s WALL (     100 calls)
     fftw         :    226.33s CPU    232.75s WALL (  535532 calls)
     davcio       :      0.01s CPU      0.02s WALL (     128 calls)

     Parallel routines
     fft_scatt_xy :     36.77s CPU     37.83s WALL (  536745 calls)
     fft_scatt_yz :     39.68s CPU     41.05s WALL (  536745 calls)

     PWSCF        :  9m 5.16s CPU     9m27.62s WALL


   This run was terminated on:  15:51:40  23Oct2018            

=------------------------------------------------------------------------------=
   JOB DONE.
=------------------------------------------------------------------------------=
-------------------------------------------------------
Primary job  terminated normally, but 1 process returned
a non-zero exit code.. Per user-direction, the job has been aborted.
-------------------------------------------------------
--------------------------------------------------------------------------
mpirun.openmpi detected that one or more processes exited with non-zero status, thus causing
the job to be terminated. The first process to do so was:

  Process name: [[6219,1],4]
  Exit code:    2
--------------------------------------------------------------------------
