
     Program PWSCF v.6.3MaX starts on 23Oct2018 at 13:30:53 

     This program is part of the open-source Quantum ESPRESSO suite
     for quantum simulation of materials; please cite
         "P. Giannozzi et al., J. Phys.:Condens. Matter 21 395502 (2009);
         "P. Giannozzi et al., J. Phys.:Condens. Matter 29 465901 (2017);
          URL http://www.quantum-espresso.org", 
     in publications or presentations arising from this work. More details at
     http://www.quantum-espresso.org/quote

     Parallel version (MPI), running on     8 processors

     MPI processes distributed on     1 nodes
     R & G space division:  proc/nbgrp/npool/nimage =       8
     Waiting for input...
     Reading input from standard input
Warning: card &CELL ignored
Warning: card                CELL_DYNAMICS = 'BFGS' , ignored
Warning: card / ignored

     Current dimensions of program PWSCF are:
     Max number of different atomic species (ntypx) = 10
     Max number of k-points (npk) =  40000
     Max angular momentum in pseudopotentials (lmaxx) =  3
               file N.pbe-n-kjpaw_psl.1.0.0.UPF: wavefunction(s)  2S renormalized
               file Na.pbe-spnl-kjpaw_psl.1.0.0.UPF: wavefunction(s)  2P renormalized

     Subspace diagonalization in iterative solution of the eigenvalue problem:
     a serial algorithm will be used


     Parallelization info
     --------------------
     sticks:   dense  smooth     PW     G-vecs:    dense   smooth      PW
     Min         277     277     81                 8607     8607    1346
     Max         278     278     82                 8610     8610    1348
     Sum        2221    2221    649                68873    68873   10777



     bravais-lattice index     =            2
     lattice parameter (alat)  =      14.6200  a.u.
     unit-cell volume          =     781.2358 (a.u.)^3
     number of atoms/cell      =            3
     number of atomic types    =            3
     number of electrons       =         9.00
     number of Kohn-Sham states=            9
     kinetic-energy cutoff     =      75.0000  Ry
     charge density cutoff     =     300.0000  Ry
     convergence threshold     =      1.0E-09
     mixing beta               =       0.4000
     number of iterations used =            8  plain     mixing
     Exchange-correlation      = SLA PW PBX PBC ( 1  4  3  4 0 0)

     celldm(1)=  14.620000  celldm(2)=   0.000000  celldm(3)=   0.000000
     celldm(4)=   0.000000  celldm(5)=   0.000000  celldm(6)=   0.000000

     crystal axes: (cart. coord. in units of alat)
               a(1) = (  -0.500000   0.000000   0.500000 )  
               a(2) = (   0.000000   0.500000   0.500000 )  
               a(3) = (  -0.500000   0.500000   0.000000 )  

     reciprocal axes: (cart. coord. in units 2 pi/alat)
               b(1) = ( -1.000000 -1.000000  1.000000 )  
               b(2) = (  1.000000  1.000000  1.000000 )  
               b(3) = ( -1.000000  1.000000 -1.000000 )  


     PseudoPot. # 1 for N  read from file:
     ./../ps/N.pbe-n-kjpaw_psl.1.0.0.UPF
     MD5 check sum: 200139db3989ad6e773ddd42f12fc3a8
     Pseudo is Projector augmented-wave + core cor, Zval =  5.0
     Generated using "atomic" code by A. Dal Corso v.6.3
     Shape of augmentation charge: PSQ
     Using radial grid of 1085 points,  4 beta functions with: 
                l(1) =   0
                l(2) =   0
                l(3) =   1
                l(4) =   1
     Q(r) pseudized with 0 coefficients 


     PseudoPot. # 2 for Na read from file:
     ./../ps/Na.pbe-spnl-kjpaw_psl.1.0.0.UPF
     MD5 check sum: 09e782c158f17eb2240230c4112357ee
     Pseudo is Projector augmented-wave + core cor, Zval =  9.0
     Generated using "atomic" code by A. Dal Corso v.6.3
     Shape of augmentation charge: PSQ
     Using radial grid of 1121 points,  4 beta functions with: 
                l(1) =   0
                l(2) =   0
                l(3) =   1
                l(4) =   1
     Q(r) pseudized with 0 coefficients 


     PseudoPot. # 3 for Cs read from file:
     ./../ps/Cs.pbe-spnl-kjpaw_psl.1.0.0.UPF
     MD5 check sum: f98336d4a4407e24c1ab1e3bc36275e8
     Pseudo is Projector augmented-wave + core cor, Zval = -5.0
     Generated using "atomic" code by A. Dal Corso v.6.2.2
     Shape of augmentation charge: PSQ
     Using radial grid of 1251 points,  6 beta functions with: 
                l(1) =   0
                l(2) =   0
                l(3) =   1
                l(4) =   1
                l(5) =   2
                l(6) =   2
     Q(r) pseudized with 0 coefficients 


     atomic species   valence    mass     pseudopotential
        N              5.00    14.00670     N ( 1.00)
        Na             9.00    22.98977     Na( 1.00)
        Cs            -5.00   132.90545     Cs( 1.00)

     24 Sym. Ops. (no inversion) found



   Cartesian axes

     site n.     atom                  positions (alat units)
         1           N   tau(   1) = (   0.0000000   0.0000000   0.0000000  )
         2           Na  tau(   2) = (  -0.2500000   0.2500000   0.2500000  )
         3           Cs  tau(   3) = (  -0.7500000   0.7500000   0.7500000  )

     number of k points=   110  Methfessel-Paxton smearing, width (Ry)=  0.0200

     Number of k-points >= 100: set verbosity='high' to print them.

     Dense  grid:    68873 G-vectors     FFT dimensions: (  60,  60,  60)

     Estimated max dynamical RAM per process >      59.06 MB

     Estimated total dynamical RAM >     472.47 MB

     Check: negative/imaginary core charge=   -0.000002    0.000000

     Initial potential from superposition of free atoms

     starting charge   22.95298, renormalised to    9.00000
     Starting wfcs are   14 randomized atomic wfcs
     Checking if some PAW data can be deallocated... 

     total cpu time spent up to now is        5.3 secs

     Self-consistent Calculation

     iteration #  1     ecut=    75.00 Ry     beta= 0.40
     Davidson diagonalization with overlap
     ethr =  1.00E-02,  avg # of iterations = 12.3

     total cpu time spent up to now is       20.1 secs

     total energy              =    -717.43946881 Ry
     Harris-Foulkes estimate   =    -745.46706353 Ry
     estimated scf accuracy    <      48.68926621 Ry

     iteration #  2     ecut=    75.00 Ry     beta= 0.40
     Davidson diagonalization with overlap
     ethr =  1.00E-02,  avg # of iterations =  3.0

     total cpu time spent up to now is       28.1 secs

     total energy              =    -709.74951008 Ry
     Harris-Foulkes estimate   =    -719.39044683 Ry
     estimated scf accuracy    <      11.17703051 Ry

     iteration #  3     ecut=    75.00 Ry     beta= 0.40
     Davidson diagonalization with overlap
     ethr =  1.00E-02,  avg # of iterations =  9.7

     negative rho (up, down):  9.371E-02 0.000E+00

     total cpu time spent up to now is       43.3 secs

     total energy              =    -712.59150997 Ry
     Harris-Foulkes estimate   =    -713.18203522 Ry
     estimated scf accuracy    <       1.08670713 Ry

     iteration #  4     ecut=    75.00 Ry     beta= 0.40
     Davidson diagonalization with overlap
     ethr =  1.00E-02,  avg # of iterations =  3.3

     negative rho (up, down):  1.857E-01 0.000E+00

     total cpu time spent up to now is       50.6 secs

     total energy              =    -712.72851371 Ry
     Harris-Foulkes estimate   =    -712.91922094 Ry
     estimated scf accuracy    <       0.28020941 Ry

     iteration #  5     ecut=    75.00 Ry     beta= 0.40
     Davidson diagonalization with overlap
     ethr =  3.11E-03,  avg # of iterations =  6.1

     negative rho (up, down):  2.253E-01 0.000E+00

     total cpu time spent up to now is       60.0 secs

     total energy              =    -712.77319249 Ry
     Harris-Foulkes estimate   =    -712.81908095 Ry
     estimated scf accuracy    <       0.08210374 Ry

     iteration #  6     ecut=    75.00 Ry     beta= 0.40
     Davidson diagonalization with overlap
     ethr =  9.12E-04,  avg # of iterations =  2.7

     negative rho (up, down):  2.239E-01 0.000E+00

     total cpu time spent up to now is       66.9 secs

     total energy              =    -712.78930789 Ry
     Harris-Foulkes estimate   =    -712.78931816 Ry
     estimated scf accuracy    <       0.00004440 Ry

     iteration #  7     ecut=    75.00 Ry     beta= 0.40
     Davidson diagonalization with overlap
     ethr =  4.93E-07,  avg # of iterations = 12.5

     negative rho (up, down):  2.235E-01 0.000E+00

     total cpu time spent up to now is       83.6 secs

     total energy              =    -712.79046582 Ry
     Harris-Foulkes estimate   =    -712.79048294 Ry
     estimated scf accuracy    <       0.00001668 Ry

     iteration #  8     ecut=    75.00 Ry     beta= 0.40
     Davidson diagonalization with overlap
     ethr =  1.85E-07,  avg # of iterations =  3.0

     negative rho (up, down):  2.242E-01 0.000E+00

     total cpu time spent up to now is       90.6 secs

     total energy              =    -712.79047648 Ry
     Harris-Foulkes estimate   =    -712.79047961 Ry
     estimated scf accuracy    <       0.00000725 Ry

     iteration #  9     ecut=    75.00 Ry     beta= 0.40
     Davidson diagonalization with overlap
     ethr =  8.06E-08,  avg # of iterations =  2.0

     negative rho (up, down):  2.242E-01 0.000E+00

     total cpu time spent up to now is       97.0 secs

     total energy              =    -712.79047616 Ry
     Harris-Foulkes estimate   =    -712.79047850 Ry
     estimated scf accuracy    <       0.00000139 Ry

     iteration # 10     ecut=    75.00 Ry     beta= 0.40
     Davidson diagonalization with overlap
     ethr =  1.55E-08,  avg # of iterations =  2.1

     negative rho (up, down):  2.241E-01 0.000E+00

     total cpu time spent up to now is      103.6 secs

     total energy              =    -712.79047574 Ry
     Harris-Foulkes estimate   =    -712.79047635 Ry
     estimated scf accuracy    <       0.00000031 Ry

     iteration # 11     ecut=    75.00 Ry     beta= 0.40
     Davidson diagonalization with overlap
     ethr =  3.44E-09,  avg # of iterations =  2.4

     negative rho (up, down):  2.241E-01 0.000E+00

     total cpu time spent up to now is      110.5 secs

     total energy              =    -712.79047581 Ry
     Harris-Foulkes estimate   =    -712.79047585 Ry
     estimated scf accuracy    <       0.00000002 Ry

     iteration # 12     ecut=    75.00 Ry     beta= 0.40
     Davidson diagonalization with overlap
     ethr =  2.22E-10,  avg # of iterations =  3.0

     negative rho (up, down):  2.241E-01 0.000E+00

     total cpu time spent up to now is      118.3 secs

     End of self-consistent calculation

     Number of k-points >= 100: set verbosity='high' to print the bands.

     the Fermi energy is  -323.9649 ev

!    total energy              =    -712.79047583 Ry
     Harris-Foulkes estimate   =    -712.79047583 Ry
     estimated scf accuracy    <          8.7E-10 Ry

     total all-electron energy =    -16167.876252 Ry

     The total energy is the sum of the following terms:

     one-electron contribution =    -316.87091569 Ry
     hartree contribution      =      54.82485277 Ry
     xc contribution           =     -28.95923064 Ry
     ewald contribution        =     -36.56760676 Ry
     one-center paw contrib.   =    -385.20892480 Ry
     smearing contrib. (-TS)   =      -0.00865071 Ry

     convergence has been achieved in  12 iterations

     negative rho (up, down):  2.241E-01 0.000E+00

     Forces acting on atoms (cartesian axes, Ry/au):

     atom    1 type  1   force =     0.00000000    0.00000000    0.00000000
     atom    2 type  2   force =     0.00000000    0.00000000   -0.00000000
     atom    3 type  3   force =     0.00000000    0.00000000    0.00000000

     Total force =     0.000000     Total SCF correction =     0.000000


     Computing stress (Cartesian axis) and pressure


     negative rho (up, down):  2.241E-01 0.000E+00
          total   stress  (Ry/bohr**3)                   (kbar)     P=********
  -0.14344636   0.00000000   0.00000000     -21101.69      0.00      0.00
   0.00000000  -0.14344636   0.00000000          0.00 -21101.69      0.00
   0.00000000   0.00000000  -0.14344636          0.00      0.00 -21101.69


     Writing output data file NNaCs.save/

     init_run     :      3.20s CPU      3.50s WALL (       1 calls)
     electrons    :    108.84s CPU    112.99s WALL (       1 calls)
     forces       :      0.95s CPU      0.98s WALL (       1 calls)
     stress       :      2.20s CPU      2.24s WALL (       1 calls)

     Called by init_run:
     wfcinit      :      2.57s CPU      2.67s WALL (       1 calls)
     potinit      :      0.11s CPU      0.19s WALL (       1 calls)
     hinit0       :      0.38s CPU      0.48s WALL (       1 calls)

     Called by electrons:
     c_bands      :     90.98s CPU     93.88s WALL (      12 calls)
     sum_band     :     15.59s CPU     16.06s WALL (      12 calls)
     v_of_rho     :      0.37s CPU      0.46s WALL (      13 calls)
     newd         :      1.21s CPU      1.23s WALL (      13 calls)
     PAW_pot      :      0.68s CPU      1.45s WALL (      13 calls)
     mix_rho      :      0.11s CPU      0.11s WALL (      12 calls)

     Called by c_bands:
     init_us_2    :      2.28s CPU      2.34s WALL (    2970 calls)
     cegterg      :     87.72s CPU     90.44s WALL (    1320 calls)

     Called by sum_band:
     sum_band:bec :      0.04s CPU      0.04s WALL (    1320 calls)
     addusdens    :      1.01s CPU      1.03s WALL (      12 calls)

     Called by *egterg:
     h_psi        :     71.55s CPU     73.93s WALL (    8261 calls)
     s_psi        :      3.95s CPU      4.02s WALL (    8261 calls)
     g_psi        :      0.20s CPU      0.20s WALL (    6831 calls)
     cdiaghg      :      1.72s CPU      1.76s WALL (    8151 calls)

     Called by h_psi:
     h_psi:pot    :     70.68s CPU     73.03s WALL (    8261 calls)
     h_psi:calbec :      6.95s CPU      7.14s WALL (    8261 calls)
     vloc_psi     :     58.70s CPU     60.76s WALL (    8261 calls)
     add_vuspsi   :      4.96s CPU      5.07s WALL (    8261 calls)

     General routines
     calbec       :      8.73s CPU      8.98s WALL (   10131 calls)
     fft          :      0.19s CPU      0.22s WALL (     169 calls)
     ffts         :      0.02s CPU      0.02s WALL (      12 calls)
     fftw         :     47.77s CPU     49.64s WALL (   99514 calls)

     Parallel routines
     fft_scatt_xy :      7.44s CPU      7.65s WALL (   99695 calls)
     fft_scatt_yz :      7.83s CPU      8.66s WALL (   99695 calls)

     PWSCF        :  1m56.97s CPU     2m 1.71s WALL


   This run was terminated on:  13:32:54  23Oct2018            

=------------------------------------------------------------------------------=
   JOB DONE.
=------------------------------------------------------------------------------=
