
     Program PWSCF v.6.3MaX starts on 23Oct2018 at 17:53:47 

     This program is part of the open-source Quantum ESPRESSO suite
     for quantum simulation of materials; please cite
         "P. Giannozzi et al., J. Phys.:Condens. Matter 21 395502 (2009);
         "P. Giannozzi et al., J. Phys.:Condens. Matter 29 465901 (2017);
          URL http://www.quantum-espresso.org", 
     in publications or presentations arising from this work. More details at
     http://www.quantum-espresso.org/quote

     Parallel version (MPI), running on     8 processors

     MPI processes distributed on     1 nodes
     R & G space division:  proc/nbgrp/npool/nimage =       8
     Waiting for input...
     Reading input from standard input
Warning: card &CELL ignored
Warning: card                CELL_DYNAMICS = 'BFGS' , ignored
Warning: card / ignored

     Current dimensions of program PWSCF are:
     Max number of different atomic species (ntypx) = 10
     Max number of k-points (npk) =  40000
     Max angular momentum in pseudopotentials (lmaxx) =  3
     Message from routine iosys:
     minimal I/O required, wf_collect reset to FALSE
               file N.pbe-n-kjpaw_psl.1.0.0.UPF: wavefunction(s)  2S renormalized
               file Na.pbe-spnl-kjpaw_psl.1.0.0.UPF: wavefunction(s)  2P renormalized

     Subspace diagonalization in iterative solution of the eigenvalue problem:
     a serial algorithm will be used


     Parallelization info
     --------------------
     sticks:   dense  smooth     PW     G-vecs:    dense   smooth      PW
     Min         141     141     43                 3116     3116     533
     Max         143     143     44                 3117     3117     536
     Sum        1135    1135    349                24933    24933    4279



     bravais-lattice index     =            2
     lattice parameter (alat)  =      10.1000  a.u.
     unit-cell volume          =     257.5752 (a.u.)^3
     number of atoms/cell      =            3
     number of atomic types    =            3
     number of electrons       =         9.00
     number of Kohn-Sham states=            9
     kinetic-energy cutoff     =      80.0000  Ry
     charge density cutoff     =     320.0000  Ry
     convergence threshold     =      1.0E-09
     mixing beta               =       0.4000
     number of iterations used =            8  plain     mixing
     Exchange-correlation      = SLA PW PBX PBC ( 1  4  3  4 0 0)

     celldm(1)=  10.100000  celldm(2)=   0.000000  celldm(3)=   0.000000
     celldm(4)=   0.000000  celldm(5)=   0.000000  celldm(6)=   0.000000

     crystal axes: (cart. coord. in units of alat)
               a(1) = (  -0.500000   0.000000   0.500000 )  
               a(2) = (   0.000000   0.500000   0.500000 )  
               a(3) = (  -0.500000   0.500000   0.000000 )  

     reciprocal axes: (cart. coord. in units 2 pi/alat)
               b(1) = ( -1.000000 -1.000000  1.000000 )  
               b(2) = (  1.000000  1.000000  1.000000 )  
               b(3) = ( -1.000000  1.000000 -1.000000 )  


     PseudoPot. # 1 for N  read from file:
     ./ps/N.pbe-n-kjpaw_psl.1.0.0.UPF
     MD5 check sum: 200139db3989ad6e773ddd42f12fc3a8
     Pseudo is Projector augmented-wave + core cor, Zval =  5.0
     Generated using "atomic" code by A. Dal Corso v.6.3
     Shape of augmentation charge: PSQ
     Using radial grid of 1085 points,  4 beta functions with: 
                l(1) =   0
                l(2) =   0
                l(3) =   1
                l(4) =   1
     Q(r) pseudized with 0 coefficients 


     PseudoPot. # 2 for Na read from file:
     ./ps/Na.pbe-spnl-kjpaw_psl.1.0.0.UPF
     MD5 check sum: 09e782c158f17eb2240230c4112357ee
     Pseudo is Projector augmented-wave + core cor, Zval =  9.0
     Generated using "atomic" code by A. Dal Corso v.6.3
     Shape of augmentation charge: PSQ
     Using radial grid of 1121 points,  4 beta functions with: 
                l(1) =   0
                l(2) =   0
                l(3) =   1
                l(4) =   1
     Q(r) pseudized with 0 coefficients 


     PseudoPot. # 3 for Cs read from file:
     ./ps/Cs.pbe-spnl-kjpaw_psl.1.0.0.UPF
     MD5 check sum: f98336d4a4407e24c1ab1e3bc36275e8
     Pseudo is Projector augmented-wave + core cor, Zval = -5.0
     Generated using "atomic" code by A. Dal Corso v.6.2.2
     Shape of augmentation charge: PSQ
     Using radial grid of 1251 points,  6 beta functions with: 
                l(1) =   0
                l(2) =   0
                l(3) =   1
                l(4) =   1
                l(5) =   2
                l(6) =   2
     Q(r) pseudized with 0 coefficients 


     atomic species   valence    mass     pseudopotential
        N              5.00    14.00670     N ( 1.00)
        Na             9.00    22.98977     Na( 1.00)
        Cs            -5.00   132.90545     Cs( 1.00)

     24 Sym. Ops. (no inversion) found



   Cartesian axes

     site n.     atom                  positions (alat units)
         1           N   tau(   1) = (   0.0000000   0.0000000   0.0000000  )
         2           Na  tau(   2) = (  -0.2500000   0.2500000   0.2500000  )
         3           Cs  tau(   3) = (  -0.7500000   0.7500000   0.7500000  )

     number of k points=   110  Methfessel-Paxton smearing, width (Ry)=  0.0200

     Number of k-points >= 100: set verbosity='high' to print them.

     Dense  grid:    24933 G-vectors     FFT dimensions: (  45,  45,  45)

     Estimated max dynamical RAM per process >      24.93 MB

     Estimated total dynamical RAM >     199.45 MB

     Check: negative/imaginary core charge=   -0.000002    0.000000

     Initial potential from superposition of free atoms

     starting charge   22.95298, renormalised to    9.00000
     Starting wfcs are   14 randomized atomic wfcs
     Checking if some PAW data can be deallocated... 

     total cpu time spent up to now is        5.5 secs

     Self-consistent Calculation

     iteration #  1     ecut=    80.00 Ry     beta= 0.40
     Davidson diagonalization with overlap
     ethr =  1.00E-02,  avg # of iterations =  4.3

     total cpu time spent up to now is       11.8 secs

     total energy              =   -1075.05516847 Ry
     Harris-Foulkes estimate   =   -1079.21976856 Ry
     estimated scf accuracy    <       8.46434734 Ry

     iteration #  2     ecut=    80.00 Ry     beta= 0.40
     Davidson diagonalization with overlap
     ethr =  1.00E-02,  avg # of iterations =  2.0

     total cpu time spent up to now is       15.3 secs

     total energy              =   -1075.31636246 Ry
     Harris-Foulkes estimate   =   -1082.20096231 Ry
     estimated scf accuracy    <      41.45769444 Ry

     iteration #  3     ecut=    80.00 Ry     beta= 0.40
     Davidson diagonalization with overlap
     ethr =  1.00E-02,  avg # of iterations =  1.0

     total cpu time spent up to now is       18.2 secs

     total energy              =   -1075.66598617 Ry
     Harris-Foulkes estimate   =   -1076.59390147 Ry
     estimated scf accuracy    <       2.94361102 Ry

     iteration #  4     ecut=    80.00 Ry     beta= 0.40
     Davidson diagonalization with overlap
     ethr =  1.00E-02,  avg # of iterations =  1.0

     total cpu time spent up to now is       21.2 secs

     total energy              =   -1073.22761546 Ry
     Harris-Foulkes estimate   =   -1076.40946443 Ry
     estimated scf accuracy    <      19.29842406 Ry

     iteration #  5     ecut=    80.00 Ry     beta= 0.40
     Davidson diagonalization with overlap
     ethr =  1.00E-02,  avg # of iterations =  1.0

     total cpu time spent up to now is       24.3 secs

     total energy              =   -1076.82914755 Ry
     Harris-Foulkes estimate   =   -1076.99995311 Ry
     estimated scf accuracy    <       3.04048571 Ry

     iteration #  6     ecut=    80.00 Ry     beta= 0.40
     Davidson diagonalization with overlap
     ethr =  1.00E-02,  avg # of iterations =  1.0

     negative rho (up, down):  5.536E-05 0.000E+00

     total cpu time spent up to now is       27.5 secs

     total energy              =   -1076.60064970 Ry
     Harris-Foulkes estimate   =   -1076.84760016 Ry
     estimated scf accuracy    <       2.85660549 Ry

     iteration #  7     ecut=    80.00 Ry     beta= 0.40
     Davidson diagonalization with overlap
     ethr =  1.00E-02,  avg # of iterations =  1.0

     negative rho (up, down):  1.784E-04 0.000E+00

     total cpu time spent up to now is       30.6 secs

     total energy              =   -1076.11872537 Ry
     Harris-Foulkes estimate   =   -1076.60648110 Ry
     estimated scf accuracy    <       2.59202381 Ry

     iteration #  8     ecut=    80.00 Ry     beta= 0.40
     Davidson diagonalization with overlap
     ethr =  1.00E-02,  avg # of iterations =  1.0

     negative rho (up, down):  1.816E-04 0.000E+00

     total cpu time spent up to now is       33.5 secs

     total energy              =   -1075.98480486 Ry
     Harris-Foulkes estimate   =   -1076.12747724 Ry
     estimated scf accuracy    <       1.86379664 Ry

     iteration #  9     ecut=    80.00 Ry     beta= 0.40
     Davidson diagonalization with overlap
     ethr =  1.00E-02,  avg # of iterations =  1.0

     negative rho (up, down):  1.316E-04 0.000E+00

     total cpu time spent up to now is       36.4 secs

     total energy              =   -1075.95009167 Ry
     Harris-Foulkes estimate   =   -1076.05524736 Ry
     estimated scf accuracy    <       3.20556461 Ry

     iteration # 10     ecut=    80.00 Ry     beta= 0.40
     Davidson diagonalization with overlap
     ethr =  1.00E-02,  avg # of iterations =  1.0

     negative rho (up, down):  9.328E-05 0.000E+00

     total cpu time spent up to now is       39.3 secs

     total energy              =   -1076.06340185 Ry
     Harris-Foulkes estimate   =   -1076.06879584 Ry
     estimated scf accuracy    <       1.48270887 Ry

     iteration # 11     ecut=    80.00 Ry     beta= 0.40
     Davidson diagonalization with overlap
     ethr =  1.00E-02,  avg # of iterations =  1.0

     negative rho (up, down):  1.222E-04 0.000E+00

     total cpu time spent up to now is       42.4 secs

     total energy              =   -1076.29321420 Ry
     Harris-Foulkes estimate   =   -1076.06425414 Ry
     estimated scf accuracy    <       1.43794276 Ry

     iteration # 12     ecut=    80.00 Ry     beta= 0.40
     Davidson diagonalization with overlap
     ethr =  1.00E-02,  avg # of iterations =  1.0

     negative rho (up, down):  1.478E-04 0.000E+00

     total cpu time spent up to now is       45.3 secs

     total energy              =   -1076.22802541 Ry
     Harris-Foulkes estimate   =   -1076.32007737 Ry
     estimated scf accuracy    <       2.20331359 Ry

     iteration # 13     ecut=    80.00 Ry     beta= 0.40
     Davidson diagonalization with overlap
     ethr =  1.00E-02,  avg # of iterations =  1.0

     negative rho (up, down):  1.780E-04 0.000E+00

     total cpu time spent up to now is       48.3 secs

     total energy              =   -1076.17207227 Ry
     Harris-Foulkes estimate   =   -1076.22859076 Ry
     estimated scf accuracy    <       2.07091337 Ry

     iteration # 14     ecut=    80.00 Ry     beta= 0.40
     Davidson diagonalization with overlap
     ethr =  1.00E-02,  avg # of iterations =  1.0

     negative rho (up, down):  1.739E-04 0.000E+00

     total cpu time spent up to now is       51.4 secs

     total energy              =   -1076.17818186 Ry
     Harris-Foulkes estimate   =   -1076.17246090 Ry
     estimated scf accuracy    <       1.97063166 Ry

     iteration # 15     ecut=    80.00 Ry     beta= 0.40
     Davidson diagonalization with overlap
     ethr =  1.00E-02,  avg # of iterations =  1.0

     negative rho (up, down):  6.716E-04 0.000E+00

     total cpu time spent up to now is       54.5 secs

     total energy              =   -1075.98301988 Ry
     Harris-Foulkes estimate   =   -1076.17827704 Ry
     estimated scf accuracy    <       1.98193320 Ry

     iteration # 16     ecut=    80.00 Ry     beta= 0.40
     Davidson diagonalization with overlap
     ethr =  1.00E-02,  avg # of iterations =  1.0

     negative rho (up, down):  2.280E-04 0.000E+00

     total cpu time spent up to now is       57.7 secs

     total energy              =   -1075.95405087 Ry
     Harris-Foulkes estimate   =   -1076.06110237 Ry
     estimated scf accuracy    <       3.63364578 Ry

     iteration # 17     ecut=    80.00 Ry     beta= 0.40
     Davidson diagonalization with overlap
     ethr =  1.00E-02,  avg # of iterations =  1.0

     negative rho (up, down):  4.913E-04 0.000E+00

     total cpu time spent up to now is       60.7 secs

     total energy              =   -1076.03886971 Ry
     Harris-Foulkes estimate   =   -1076.06384857 Ry
     estimated scf accuracy    <       1.43401601 Ry

     iteration # 18     ecut=    80.00 Ry     beta= 0.40
     Davidson diagonalization with overlap
     ethr =  1.00E-02,  avg # of iterations =  1.0

     negative rho (up, down):  4.859E-04 0.000E+00

     total cpu time spent up to now is       63.7 secs

     total energy              =   -1076.03157566 Ry
     Harris-Foulkes estimate   =   -1076.04018871 Ry
     estimated scf accuracy    <       0.76081996 Ry

     iteration # 19     ecut=    80.00 Ry     beta= 0.40
     Davidson diagonalization with overlap
     ethr =  8.45E-03,  avg # of iterations =  1.0

     negative rho (up, down):  4.817E-04 0.000E+00

     total cpu time spent up to now is       66.7 secs

     total energy              =   -1076.03508130 Ry
     Harris-Foulkes estimate   =   -1076.03506695 Ry
     estimated scf accuracy    <       0.01317383 Ry

     iteration # 20     ecut=    80.00 Ry     beta= 0.40
     Davidson diagonalization with overlap
     ethr =  1.46E-04,  avg # of iterations =  1.0

     negative rho (up, down):  4.967E-04 0.000E+00

     total cpu time spent up to now is       69.6 secs

     total energy              =   -1076.03526880 Ry
     Harris-Foulkes estimate   =   -1076.03510311 Ry
     estimated scf accuracy    <       0.01591945 Ry

     iteration # 21     ecut=    80.00 Ry     beta= 0.40
     Davidson diagonalization with overlap
     ethr =  1.46E-04,  avg # of iterations =  1.0

     negative rho (up, down):  5.885E-04 0.000E+00

     total cpu time spent up to now is       72.6 secs

     total energy              =   -1076.03537005 Ry
     Harris-Foulkes estimate   =   -1076.03535900 Ry
     estimated scf accuracy    <       0.05940120 Ry

     iteration # 22     ecut=    80.00 Ry     beta= 0.40
     Davidson diagonalization with overlap
     ethr =  1.46E-04,  avg # of iterations =  1.0

     negative rho (up, down):  6.988E-04 0.000E+00

     total cpu time spent up to now is       75.6 secs

     total energy              =   -1076.03327722 Ry
     Harris-Foulkes estimate   =   -1076.03537790 Ry
     estimated scf accuracy    <       0.06472137 Ry

     iteration # 23     ecut=    80.00 Ry     beta= 0.40
     Davidson diagonalization with overlap
     ethr =  1.46E-04,  avg # of iterations =  1.1

     negative rho (up, down):  1.062E-03 0.000E+00

     total cpu time spent up to now is       78.7 secs

     total energy              =   -1076.04067056 Ry
     Harris-Foulkes estimate   =   -1076.03650762 Ry
     estimated scf accuracy    <       0.27875659 Ry

     iteration # 24     ecut=    80.00 Ry     beta= 0.40
     Davidson diagonalization with overlap
     ethr =  1.46E-04,  avg # of iterations =  1.0

     negative rho (up, down):  9.922E-04 0.000E+00

     total cpu time spent up to now is       81.9 secs

     total energy              =   -1076.02380186 Ry
     Harris-Foulkes estimate   =   -1076.04352814 Ry
     estimated scf accuracy    <       1.52104508 Ry

     iteration # 25     ecut=    80.00 Ry     beta= 0.40
     Davidson diagonalization with overlap
     ethr =  1.46E-04,  avg # of iterations =  1.0

     negative rho (up, down):  1.094E-03 0.000E+00

     total cpu time spent up to now is       85.1 secs

     total energy              =   -1076.03455312 Ry
     Harris-Foulkes estimate   =   -1076.03529762 Ry
     estimated scf accuracy    <       0.05305466 Ry

     iteration # 26     ecut=    80.00 Ry     beta= 0.40
     Davidson diagonalization with overlap
     ethr =  1.46E-04,  avg # of iterations =  1.0

     negative rho (up, down):  1.039E-03 0.000E+00

     total cpu time spent up to now is       88.1 secs

     total energy              =   -1076.03488710 Ry
     Harris-Foulkes estimate   =   -1076.03501896 Ry
     estimated scf accuracy    <       0.00405565 Ry

     iteration # 27     ecut=    80.00 Ry     beta= 0.40
     Davidson diagonalization with overlap
     ethr =  4.51E-05,  avg # of iterations =  1.3

     negative rho (up, down):  1.006E-03 0.000E+00

     total cpu time spent up to now is       91.1 secs

     total energy              =   -1076.03483199 Ry
     Harris-Foulkes estimate   =   -1076.03510203 Ry
     estimated scf accuracy    <       0.01845695 Ry

     iteration # 28     ecut=    80.00 Ry     beta= 0.40
     Davidson diagonalization with overlap
     ethr =  4.51E-05,  avg # of iterations =  1.1

     negative rho (up, down):  1.415E-03 0.000E+00

     total cpu time spent up to now is       94.1 secs

     total energy              =   -1076.03499216 Ry
     Harris-Foulkes estimate   =   -1076.03503086 Ry
     estimated scf accuracy    <       0.00329581 Ry

     iteration # 29     ecut=    80.00 Ry     beta= 0.40
     Davidson diagonalization with overlap
     ethr =  3.66E-05,  avg # of iterations =  1.3

     negative rho (up, down):  1.755E-03 0.000E+00

     total cpu time spent up to now is       97.1 secs

     total energy              =   -1076.03495078 Ry
     Harris-Foulkes estimate   =   -1076.03499792 Ry
     estimated scf accuracy    <       0.00447907 Ry

     iteration # 30     ecut=    80.00 Ry     beta= 0.40
     Davidson diagonalization with overlap
     ethr =  3.66E-05,  avg # of iterations =  1.0

     negative rho (up, down):  1.763E-03 0.000E+00

     total cpu time spent up to now is      100.1 secs

     total energy              =   -1076.03495939 Ry
     Harris-Foulkes estimate   =   -1076.03496710 Ry
     estimated scf accuracy    <       0.00041844 Ry

     iteration # 31     ecut=    80.00 Ry     beta= 0.40
     Davidson diagonalization with overlap
     ethr =  4.65E-06,  avg # of iterations =  2.1

     negative rho (up, down):  1.849E-03 0.000E+00

     total cpu time spent up to now is      103.3 secs

     total energy              =   -1076.03497017 Ry
     Harris-Foulkes estimate   =   -1076.03496978 Ry
     estimated scf accuracy    <       0.00039103 Ry

     iteration # 32     ecut=    80.00 Ry     beta= 0.40
     Davidson diagonalization with overlap
     ethr =  4.34E-06,  avg # of iterations =  1.0

     negative rho (up, down):  1.992E-03 0.000E+00

     total cpu time spent up to now is      106.4 secs

     total energy              =   -1076.03496543 Ry
     Harris-Foulkes estimate   =   -1076.03497088 Ry
     estimated scf accuracy    <       0.00062627 Ry

     iteration # 33     ecut=    80.00 Ry     beta= 0.40
     Davidson diagonalization with overlap
     ethr =  4.34E-06,  avg # of iterations =  1.0

     negative rho (up, down):  2.080E-03 0.000E+00

     total cpu time spent up to now is      109.3 secs

     total energy              =   -1076.03496733 Ry
     Harris-Foulkes estimate   =   -1076.03496876 Ry
     estimated scf accuracy    <       0.00002663 Ry

     iteration # 34     ecut=    80.00 Ry     beta= 0.40
     Davidson diagonalization with overlap
     ethr =  2.96E-07,  avg # of iterations =  1.4

     negative rho (up, down):  2.052E-03 0.000E+00

     total cpu time spent up to now is      112.3 secs

     total energy              =   -1076.03496700 Ry
     Harris-Foulkes estimate   =   -1076.03496791 Ry
     estimated scf accuracy    <       0.00006325 Ry

     iteration # 35     ecut=    80.00 Ry     beta= 0.40
     Davidson diagonalization with overlap
     ethr =  2.96E-07,  avg # of iterations =  1.0

     negative rho (up, down):  2.132E-03 0.000E+00

     total cpu time spent up to now is      115.3 secs

     total energy              =   -1076.03496747 Ry
     Harris-Foulkes estimate   =   -1076.03496749 Ry
     estimated scf accuracy    <       0.00000060 Ry

     iteration # 36     ecut=    80.00 Ry     beta= 0.40
     Davidson diagonalization with overlap
     ethr =  6.63E-09,  avg # of iterations =  3.0

     negative rho (up, down):  2.105E-03 0.000E+00

     total cpu time spent up to now is      118.8 secs

     total energy              =   -1076.03496757 Ry
     Harris-Foulkes estimate   =   -1076.03496758 Ry
     estimated scf accuracy    <       0.00000005 Ry

     iteration # 37     ecut=    80.00 Ry     beta= 0.40
     Davidson diagonalization with overlap
     ethr =  5.30E-10,  avg # of iterations =  2.8

     negative rho (up, down):  2.092E-03 0.000E+00

     total cpu time spent up to now is      122.4 secs

     total energy              =   -1076.03496758 Ry
     Harris-Foulkes estimate   =   -1076.03496758 Ry
     estimated scf accuracy    <          2.9E-09 Ry

     iteration # 38     ecut=    80.00 Ry     beta= 0.40
     Davidson diagonalization with overlap
     ethr =  3.24E-11,  avg # of iterations =  2.9

     negative rho (up, down):  2.097E-03 0.000E+00

     total cpu time spent up to now is      126.1 secs

     End of self-consistent calculation

     Number of k-points >= 100: set verbosity='high' to print the bands.

     the Fermi energy is  -924.5988 ev

!    total energy              =   -1076.03496757 Ry
     Harris-Foulkes estimate   =   -1076.03496757 Ry
     estimated scf accuracy    <          7.6E-10 Ry

     total all-electron energy =    -16531.120743 Ry

     The total energy is the sum of the following terms:

     one-electron contribution =    -627.91222387 Ry
     hartree contribution      =      13.36343093 Ry
     xc contribution           =     -24.47387956 Ry
     ewald contribution        =     -52.93251593 Ry
     one-center paw contrib.   =    -384.07418452 Ry
     smearing contrib. (-TS)   =      -0.00559462 Ry

     convergence has been achieved in  38 iterations

     negative rho (up, down):  2.097E-03 0.000E+00

     Forces acting on atoms (cartesian axes, Ry/au):

     atom    1 type  1   force =     0.00000000   -0.00000000   -0.00000000
     atom    2 type  2   force =    -0.00000000    0.00000000    0.00000000
     atom    3 type  3   force =     0.00000000    0.00000000    0.00000000

     Total force =     0.000000     Total SCF correction =     0.000000


     Computing stress (Cartesian axis) and pressure


     negative rho (up, down):  2.097E-03 0.000E+00
          total   stress  (Ry/bohr**3)                   (kbar)     P=********
  -1.68378960  -0.00000000   0.00000000    -247693.96     -0.00      0.00
  -0.00000000  -1.68378960  -0.00000000         -0.00-247693.96     -0.00
   0.00000000  -0.00000000  -1.68378960          0.00     -0.00-247693.96


     init_run     :      1.59s CPU      2.64s WALL (       1 calls)
     electrons    :     72.79s CPU    120.54s WALL (       1 calls)
     forces       :      0.24s CPU      0.51s WALL (       1 calls)
     stress       :      0.82s CPU      1.36s WALL (       1 calls)

     Called by init_run:
     wfcinit      :      1.09s CPU      1.81s WALL (       1 calls)
     potinit      :      0.10s CPU      0.19s WALL (       1 calls)
     hinit0       :      0.35s CPU      0.56s WALL (       1 calls)

     Called by electrons:
     c_bands      :     56.46s CPU     91.97s WALL (      38 calls)
     sum_band     :     12.52s CPU     20.37s WALL (      38 calls)
     v_of_rho     :      0.46s CPU      0.75s WALL (      39 calls)
     newd         :      0.98s CPU      1.34s WALL (      39 calls)
     PAW_pot      :      2.34s CPU      6.01s WALL (      39 calls)
     mix_rho      :      0.10s CPU      0.18s WALL (      38 calls)

     Called by c_bands:
     init_us_2    :      1.88s CPU      2.46s WALL (    8690 calls)
     cegterg      :     52.48s CPU     85.69s WALL (    4180 calls)

     Called by sum_band:
     sum_band:bec :      0.05s CPU      0.07s WALL (    4180 calls)
     addusdens    :      0.71s CPU      0.81s WALL (      38 calls)

     Called by *egterg:
     h_psi        :     43.29s CPU     71.51s WALL (    9823 calls)
     s_psi        :      1.87s CPU      2.43s WALL (    9823 calls)
     g_psi        :      0.08s CPU      0.10s WALL (    5533 calls)
     cdiaghg      :      1.12s CPU      1.59s WALL (    9713 calls)

     Called by h_psi:
     h_psi:pot    :     43.04s CPU     71.17s WALL (    9823 calls)
     h_psi:calbec :      4.07s CPU      7.46s WALL (    9823 calls)
     vloc_psi     :     36.97s CPU     61.07s WALL (    9823 calls)
     add_vuspsi   :      1.96s CPU      2.60s WALL (    9823 calls)

     General routines
     calbec       :      6.10s CPU     11.26s WALL (   14553 calls)
     fft          :      0.33s CPU      0.71s WALL (     455 calls)
     ffts         :      0.01s CPU      0.02s WALL (      38 calls)
     fftw         :     42.69s CPU     71.50s WALL (  200476 calls)

     Parallel routines
     fft_scatt_xy :      3.13s CPU      4.19s WALL (  200969 calls)
     fft_scatt_yz :     23.38s CPU     46.05s WALL (  200969 calls)

     PWSCF        :  1m17.52s CPU     2m 7.95s WALL


   This run was terminated on:  17:55:55  23Oct2018            

=------------------------------------------------------------------------------=
   JOB DONE.
=------------------------------------------------------------------------------=
