
     Program PWSCF v.6.3MaX starts on 24Oct2018 at 13:25:12 

     This program is part of the open-source Quantum ESPRESSO suite
     for quantum simulation of materials; please cite
         "P. Giannozzi et al., J. Phys.:Condens. Matter 21 395502 (2009);
         "P. Giannozzi et al., J. Phys.:Condens. Matter 29 465901 (2017);
          URL http://www.quantum-espresso.org", 
     in publications or presentations arising from this work. More details at
     http://www.quantum-espresso.org/quote

     Parallel version (MPI), running on     8 processors

     MPI processes distributed on     1 nodes
     R & G space division:  proc/nbgrp/npool/nimage =       8
     Waiting for input...
     Reading input from standard input
Warning: card &CELL ignored
Warning: card                CELL_DYNAMICS = 'BFGS' , ignored
Warning: card / ignored

     Current dimensions of program PWSCF are:
     Max number of different atomic species (ntypx) = 10
     Max number of k-points (npk) =  40000
     Max angular momentum in pseudopotentials (lmaxx) =  3
     Message from routine iosys:
     minimal I/O required, wf_collect reset to FALSE
               file N.pbe-n-kjpaw_psl.1.0.0.UPF: wavefunction(s)  2S renormalized
               file Na.pbe-spnl-kjpaw_psl.1.0.0.UPF: wavefunction(s)  2P renormalized

     Subspace diagonalization in iterative solution of the eigenvalue problem:
     a serial algorithm will be used


     Parallelization info
     --------------------
     sticks:   dense  smooth     PW     G-vecs:    dense   smooth      PW
     Min          21      21      8                  183      183      48
     Max          22      22     10                  185      185      49
     Sum         169     169     73                 1471     1471     387



     bravais-lattice index     =            2
     lattice parameter (alat)  =       4.0000  a.u.
     unit-cell volume          =      16.0000 (a.u.)^3
     number of atoms/cell      =            3
     number of atomic types    =            3
     number of electrons       =         9.00
     number of Kohn-Sham states=            9
     kinetic-energy cutoff     =      80.0000  Ry
     charge density cutoff     =     320.0000  Ry
     convergence threshold     =      1.0E-09
     mixing beta               =       0.4000
     number of iterations used =            8  plain     mixing
     Exchange-correlation      = SLA PW PBX PBC ( 1  4  3  4 0 0)

     celldm(1)=   4.000000  celldm(2)=   0.000000  celldm(3)=   0.000000
     celldm(4)=   0.000000  celldm(5)=   0.000000  celldm(6)=   0.000000

     crystal axes: (cart. coord. in units of alat)
               a(1) = (  -0.500000   0.000000   0.500000 )  
               a(2) = (   0.000000   0.500000   0.500000 )  
               a(3) = (  -0.500000   0.500000   0.000000 )  

     reciprocal axes: (cart. coord. in units 2 pi/alat)
               b(1) = ( -1.000000 -1.000000  1.000000 )  
               b(2) = (  1.000000  1.000000  1.000000 )  
               b(3) = ( -1.000000  1.000000 -1.000000 )  


     PseudoPot. # 1 for N  read from file:
     ./ps/N.pbe-n-kjpaw_psl.1.0.0.UPF
     MD5 check sum: 200139db3989ad6e773ddd42f12fc3a8
     Pseudo is Projector augmented-wave + core cor, Zval =  5.0
     Generated using "atomic" code by A. Dal Corso v.6.3
     Shape of augmentation charge: PSQ
     Using radial grid of 1085 points,  4 beta functions with: 
                l(1) =   0
                l(2) =   0
                l(3) =   1
                l(4) =   1
     Q(r) pseudized with 0 coefficients 


     PseudoPot. # 2 for Na read from file:
     ./ps/Na.pbe-spnl-kjpaw_psl.1.0.0.UPF
     MD5 check sum: 09e782c158f17eb2240230c4112357ee
     Pseudo is Projector augmented-wave + core cor, Zval =  9.0
     Generated using "atomic" code by A. Dal Corso v.6.3
     Shape of augmentation charge: PSQ
     Using radial grid of 1121 points,  4 beta functions with: 
                l(1) =   0
                l(2) =   0
                l(3) =   1
                l(4) =   1
     Q(r) pseudized with 0 coefficients 


     PseudoPot. # 3 for Cs read from file:
     ./ps/Cs.pbe-spnl-kjpaw_psl.1.0.0.UPF
     MD5 check sum: f98336d4a4407e24c1ab1e3bc36275e8
     Pseudo is Projector augmented-wave + core cor, Zval = -5.0
     Generated using "atomic" code by A. Dal Corso v.6.2.2
     Shape of augmentation charge: PSQ
     Using radial grid of 1251 points,  6 beta functions with: 
                l(1) =   0
                l(2) =   0
                l(3) =   1
                l(4) =   1
                l(5) =   2
                l(6) =   2
     Q(r) pseudized with 0 coefficients 


     atomic species   valence    mass     pseudopotential
        N              5.00    14.00670     N ( 1.00)
        Na             9.00    22.98977     Na( 1.00)
        Cs            -5.00   132.90545     Cs( 1.00)

     24 Sym. Ops. (no inversion) found



   Cartesian axes

     site n.     atom                  positions (alat units)
         1           N   tau(   1) = (   0.0000000   0.0000000   0.0000000  )
         2           Na  tau(   2) = (  -0.2500000   0.2500000   0.2500000  )
         3           Cs  tau(   3) = (  -0.7500000   0.7500000   0.7500000  )

     number of k points=   110  Methfessel-Paxton smearing, width (Ry)=  0.0200

     Number of k-points >= 100: set verbosity='high' to print them.

     Dense  grid:     1471 G-vectors     FFT dimensions: (  18,  18,  18)

     Estimated max dynamical RAM per process >       3.84 MB

     Estimated total dynamical RAM >      30.73 MB

     Initial potential from superposition of free atoms

     starting charge   22.95298, renormalised to    9.00000
     Starting wfcs are   14 randomized atomic wfcs
     Checking if some PAW data can be deallocated... 

     total cpu time spent up to now is        3.9 secs

     Self-consistent Calculation

     iteration #  1     ecut=    80.00 Ry     beta= 0.40
     Davidson diagonalization with overlap
     ethr =  1.00E-02,  avg # of iterations =  8.3

     negative rho (up, down):  4.392E-01 0.000E+00

     total cpu time spent up to now is        5.6 secs

     total energy              =  -10192.99772622 Ry
     Harris-Foulkes estimate   =  -10198.70863028 Ry
     estimated scf accuracy    <      13.19617162 Ry

     iteration #  2     ecut=    80.00 Ry     beta= 0.40
     Davidson diagonalization with overlap
     ethr =  1.00E-02,  avg # of iterations =  1.3

     negative rho (up, down):  1.472E+00 0.000E+00

     total cpu time spent up to now is        6.3 secs

     total energy              =  -10190.46123607 Ry
     Harris-Foulkes estimate   =  -10193.12440613 Ry
     estimated scf accuracy    <       4.33830609 Ry

     iteration #  3     ecut=    80.00 Ry     beta= 0.40
     Davidson diagonalization with overlap
     ethr =  1.00E-02,  avg # of iterations =  2.2

     negative rho (up, down):  1.497E+00 0.000E+00

     total cpu time spent up to now is        7.0 secs

     total energy              =  -10190.71676859 Ry
     Harris-Foulkes estimate   =  -10190.74961118 Ry
     estimated scf accuracy    <       0.04834663 Ry

     iteration #  4     ecut=    80.00 Ry     beta= 0.40
     Davidson diagonalization with overlap
     ethr =  5.37E-04,  avg # of iterations =  3.3

     negative rho (up, down):  1.532E+00 0.000E+00

     total cpu time spent up to now is        7.9 secs

     total energy              =  -10190.72008071 Ry
     Harris-Foulkes estimate   =  -10190.73454347 Ry
     estimated scf accuracy    <       0.01595406 Ry

     iteration #  5     ecut=    80.00 Ry     beta= 0.40
     Davidson diagonalization with overlap
     ethr =  1.77E-04,  avg # of iterations =  2.0

     negative rho (up, down):  1.518E+00 0.000E+00

     total cpu time spent up to now is        8.6 secs

     total energy              =  -10190.72292804 Ry
     Harris-Foulkes estimate   =  -10190.72371572 Ry
     estimated scf accuracy    <       0.00165663 Ry

     iteration #  6     ecut=    80.00 Ry     beta= 0.40
     Davidson diagonalization with overlap
     ethr =  1.84E-05,  avg # of iterations =  2.9

     negative rho (up, down):  1.523E+00 0.000E+00

     total cpu time spent up to now is        9.5 secs

     total energy              =  -10190.72301884 Ry
     Harris-Foulkes estimate   =  -10190.72320901 Ry
     estimated scf accuracy    <       0.00009803 Ry

     iteration #  7     ecut=    80.00 Ry     beta= 0.40
     Davidson diagonalization with overlap
     ethr =  1.09E-06,  avg # of iterations =  2.9

     negative rho (up, down):  1.524E+00 0.000E+00

     total cpu time spent up to now is       10.3 secs

     total energy              =  -10190.72297741 Ry
     Harris-Foulkes estimate   =  -10190.72303850 Ry
     estimated scf accuracy    <       0.00000275 Ry

     iteration #  8     ecut=    80.00 Ry     beta= 0.40
     Davidson diagonalization with overlap
     ethr =  3.06E-08,  avg # of iterations =  2.5

     negative rho (up, down):  1.523E+00 0.000E+00

     total cpu time spent up to now is       11.2 secs

     total energy              =  -10190.72300404 Ry
     Harris-Foulkes estimate   =  -10190.72297885 Ry
     estimated scf accuracy    <       0.00000247 Ry

     iteration #  9     ecut=    80.00 Ry     beta= 0.40
     Davidson diagonalization with overlap
     ethr =  2.74E-08,  avg # of iterations =  1.0

     negative rho (up, down):  1.523E+00 0.000E+00

     total cpu time spent up to now is       11.7 secs

     total energy              =  -10190.72300521 Ry
     Harris-Foulkes estimate   =  -10190.72300410 Ry
     estimated scf accuracy    <          1.6E-09 Ry

     iteration # 10     ecut=    80.00 Ry     beta= 0.40
     Davidson diagonalization with overlap
     ethr =  1.81E-11,  avg # of iterations =  4.1

     negative rho (up, down):  1.523E+00 0.000E+00

     total cpu time spent up to now is       12.7 secs

     total energy              =  -10190.72300259 Ry
     Harris-Foulkes estimate   =  -10190.72300537 Ry
     estimated scf accuracy    <          9.0E-09 Ry

     iteration # 11     ecut=    80.00 Ry     beta= 0.40
     Davidson diagonalization with overlap
     ethr =  1.81E-11,  avg # of iterations =  2.4

     negative rho (up, down):  1.523E+00 0.000E+00

     total cpu time spent up to now is       13.4 secs

     total energy              =  -10190.72300344 Ry
     Harris-Foulkes estimate   =  -10190.72300251 Ry
     estimated scf accuracy    <          3.2E-09 Ry

     iteration # 12     ecut=    80.00 Ry     beta= 0.40
     Davidson diagonalization with overlap
     ethr =  1.81E-11,  avg # of iterations =  2.0

     negative rho (up, down):  1.523E+00 0.000E+00

     total cpu time spent up to now is       14.3 secs

     total energy              =  -10190.72300350 Ry
     Harris-Foulkes estimate   =  -10190.72300348 Ry
     estimated scf accuracy    <          1.4E-09 Ry

     iteration # 13     ecut=    80.00 Ry     beta= 0.40
     Davidson diagonalization with overlap
     ethr =  1.50E-11,  avg # of iterations =  1.0

     negative rho (up, down):  1.523E+00 0.000E+00

     total cpu time spent up to now is       14.9 secs

     End of self-consistent calculation

     Number of k-points >= 100: set verbosity='high' to print the bands.

     the Fermi energy is ********** ev

!    total energy              =  -10190.72300360 Ry
     Harris-Foulkes estimate   =  -10190.72300352 Ry
     estimated scf accuracy    <          3.0E-10 Ry

     total all-electron energy =    -25645.808779 Ry

     The total energy is the sum of the following terms:

     one-electron contribution =   -9645.17275118 Ry
     hartree contribution      =       8.52847062 Ry
     xc contribution           =     -32.32346043 Ry
     ewald contribution        =    -133.65460273 Ry
     one-center paw contrib.   =    -388.10068887 Ry
     smearing contrib. (-TS)   =       0.00002899 Ry

     convergence has been achieved in  13 iterations

     negative rho (up, down):  1.523E+00 0.000E+00

     Forces acting on atoms (cartesian axes, Ry/au):

     atom    1 type  1   force =     0.00000000    0.00000000   -0.00000000
     atom    2 type  2   force =     0.00000000    0.00000000    0.00000000
     atom    3 type  3   force =     0.00000000    0.00000000    0.00000000

     Total force =     0.000000     Total SCF correction =     0.000000


     Computing stress (Cartesian axis) and pressure


     negative rho (up, down):  1.523E+00 0.000E+00
          total   stress  (Ry/bohr**3)                   (kbar)     P=********
-573.31768413   0.00000000   0.00000000    **********      0.00      0.00
   0.00000000-573.31768413  -0.00000000          0.00**********     -0.00
   0.00000000  -0.00000000-573.31768413          0.00     -0.00**********


     init_run     :      0.32s CPU      0.69s WALL (       1 calls)
     electrons    :      4.72s CPU     10.95s WALL (       1 calls)
     forces       :      0.04s CPU      0.09s WALL (       1 calls)
     stress       :      0.07s CPU      0.15s WALL (       1 calls)

     Called by init_run:
     wfcinit      :      0.13s CPU      0.23s WALL (       1 calls)
     potinit      :      0.03s CPU      0.14s WALL (       1 calls)
     hinit0       :      0.15s CPU      0.31s WALL (       1 calls)

     Called by electrons:
     c_bands      :      3.59s CPU      7.31s WALL (      13 calls)
     sum_band     :      0.46s CPU      0.95s WALL (      13 calls)
     v_of_rho     :      0.01s CPU      0.02s WALL (      14 calls)
     newd         :      0.02s CPU      0.04s WALL (      14 calls)
     PAW_pot      :      0.66s CPU      2.74s WALL (      14 calls)
     mix_rho      :      0.00s CPU      0.01s WALL (      13 calls)

     Called by c_bands:
     init_us_2    :      0.07s CPU      0.09s WALL (    3190 calls)
     cegterg      :      3.43s CPU      6.95s WALL (    1430 calls)

     Called by sum_band:
     sum_band:bec :      0.01s CPU      0.02s WALL (    1430 calls)
     addusdens    :      0.01s CPU      0.01s WALL (      13 calls)

     Called by *egterg:
     h_psi        :      2.16s CPU      4.44s WALL (    5506 calls)
     s_psi        :      0.10s CPU      0.13s WALL (    5506 calls)
     g_psi        :      0.01s CPU      0.01s WALL (    3966 calls)
     cdiaghg      :      0.75s CPU      1.48s WALL (    5396 calls)

     Called by h_psi:
     h_psi:pot    :      2.15s CPU      4.43s WALL (    5506 calls)
     h_psi:calbec :      0.24s CPU      0.65s WALL (    5506 calls)
     vloc_psi     :      1.80s CPU      3.62s WALL (    5506 calls)
     add_vuspsi   :      0.10s CPU      0.14s WALL (    5506 calls)

     General routines
     calbec       :      0.33s CPU      0.96s WALL (    7486 calls)
     fft          :      0.01s CPU      0.04s WALL (     180 calls)
     ffts         :      0.00s CPU      0.00s WALL (      13 calls)
     fftw         :      1.98s CPU      4.09s WALL (   88014 calls)

     Parallel routines
     fft_scatt_xy :      0.15s CPU      0.19s WALL (   88207 calls)
     fft_scatt_yz :      1.03s CPU      2.89s WALL (   88207 calls)

     PWSCF        :     7.07s CPU        15.11s WALL


   This run was terminated on:  13:25:27  24Oct2018            

=------------------------------------------------------------------------------=
   JOB DONE.
=------------------------------------------------------------------------------=
