
     Program PWSCF v.6.3MaX starts on 24Oct2018 at 12:36:27 

     This program is part of the open-source Quantum ESPRESSO suite
     for quantum simulation of materials; please cite
         "P. Giannozzi et al., J. Phys.:Condens. Matter 21 395502 (2009);
         "P. Giannozzi et al., J. Phys.:Condens. Matter 29 465901 (2017);
          URL http://www.quantum-espresso.org", 
     in publications or presentations arising from this work. More details at
     http://www.quantum-espresso.org/quote

     Parallel version (MPI), running on     8 processors

     MPI processes distributed on     1 nodes
     R & G space division:  proc/nbgrp/npool/nimage =       8
     Waiting for input...
     Reading input from standard input
Warning: card &CELL ignored
Warning: card                CELL_DYNAMICS = 'BFGS' , ignored
Warning: card / ignored

     Current dimensions of program PWSCF are:
     Max number of different atomic species (ntypx) = 10
     Max number of k-points (npk) =  40000
     Max angular momentum in pseudopotentials (lmaxx) =  3
     Message from routine iosys:
     minimal I/O required, wf_collect reset to FALSE
               file N.pbe-n-kjpaw_psl.1.0.0.UPF: wavefunction(s)  2S renormalized
               file Na.pbe-spnl-kjpaw_psl.1.0.0.UPF: wavefunction(s)  2P renormalized

     Subspace diagonalization in iterative solution of the eigenvalue problem:
     a serial algorithm will be used


     Parallelization info
     --------------------
     sticks:   dense  smooth     PW     G-vecs:    dense   smooth      PW
     Min          69      69     23                 1080     1080     204
     Max          70      70     24                 1083     1083     206
     Sum         559     559    187                 8657     8657    1639



     bravais-lattice index     =            2
     lattice parameter (alat)  =       7.1000  a.u.
     unit-cell volume          =      89.4777 (a.u.)^3
     number of atoms/cell      =            3
     number of atomic types    =            3
     number of electrons       =         9.00
     number of Kohn-Sham states=            9
     kinetic-energy cutoff     =      80.0000  Ry
     charge density cutoff     =     320.0000  Ry
     convergence threshold     =      1.0E-09
     mixing beta               =       0.4000
     number of iterations used =            8  plain     mixing
     Exchange-correlation      = SLA PW PBX PBC ( 1  4  3  4 0 0)

     celldm(1)=   7.100000  celldm(2)=   0.000000  celldm(3)=   0.000000
     celldm(4)=   0.000000  celldm(5)=   0.000000  celldm(6)=   0.000000

     crystal axes: (cart. coord. in units of alat)
               a(1) = (  -0.500000   0.000000   0.500000 )  
               a(2) = (   0.000000   0.500000   0.500000 )  
               a(3) = (  -0.500000   0.500000   0.000000 )  

     reciprocal axes: (cart. coord. in units 2 pi/alat)
               b(1) = ( -1.000000 -1.000000  1.000000 )  
               b(2) = (  1.000000  1.000000  1.000000 )  
               b(3) = ( -1.000000  1.000000 -1.000000 )  


     PseudoPot. # 1 for N  read from file:
     ./ps/N.pbe-n-kjpaw_psl.1.0.0.UPF
     MD5 check sum: 200139db3989ad6e773ddd42f12fc3a8
     Pseudo is Projector augmented-wave + core cor, Zval =  5.0
     Generated using "atomic" code by A. Dal Corso v.6.3
     Shape of augmentation charge: PSQ
     Using radial grid of 1085 points,  4 beta functions with: 
                l(1) =   0
                l(2) =   0
                l(3) =   1
                l(4) =   1
     Q(r) pseudized with 0 coefficients 


     PseudoPot. # 2 for Na read from file:
     ./ps/Na.pbe-spnl-kjpaw_psl.1.0.0.UPF
     MD5 check sum: 09e782c158f17eb2240230c4112357ee
     Pseudo is Projector augmented-wave + core cor, Zval =  9.0
     Generated using "atomic" code by A. Dal Corso v.6.3
     Shape of augmentation charge: PSQ
     Using radial grid of 1121 points,  4 beta functions with: 
                l(1) =   0
                l(2) =   0
                l(3) =   1
                l(4) =   1
     Q(r) pseudized with 0 coefficients 


     PseudoPot. # 3 for Cs read from file:
     ./ps/Cs.pbe-spnl-kjpaw_psl.1.0.0.UPF
     MD5 check sum: f98336d4a4407e24c1ab1e3bc36275e8
     Pseudo is Projector augmented-wave + core cor, Zval = -5.0
     Generated using "atomic" code by A. Dal Corso v.6.2.2
     Shape of augmentation charge: PSQ
     Using radial grid of 1251 points,  6 beta functions with: 
                l(1) =   0
                l(2) =   0
                l(3) =   1
                l(4) =   1
                l(5) =   2
                l(6) =   2
     Q(r) pseudized with 0 coefficients 


     atomic species   valence    mass     pseudopotential
        N              5.00    14.00670     N ( 1.00)
        Na             9.00    22.98977     Na( 1.00)
        Cs            -5.00   132.90545     Cs( 1.00)

     24 Sym. Ops. (no inversion) found



   Cartesian axes

     site n.     atom                  positions (alat units)
         1           N   tau(   1) = (   0.0000000   0.0000000   0.0000000  )
         2           Na  tau(   2) = (  -0.2500000   0.2500000   0.2500000  )
         3           Cs  tau(   3) = (  -0.7500000   0.7500000   0.7500000  )

     number of k points=   110  Methfessel-Paxton smearing, width (Ry)=  0.0200

     Number of k-points >= 100: set verbosity='high' to print them.

     Dense  grid:     8657 G-vectors     FFT dimensions: (  30,  30,  30)

     Estimated max dynamical RAM per process >      11.08 MB

     Estimated total dynamical RAM >      88.64 MB

     Initial potential from superposition of free atoms

     starting charge   22.95298, renormalised to    9.00000
     Starting wfcs are   14 randomized atomic wfcs
     Checking if some PAW data can be deallocated... 

     total cpu time spent up to now is        4.4 secs

     Self-consistent Calculation

     iteration #  1     ecut=    80.00 Ry     beta= 0.40
     Davidson diagonalization with overlap
     ethr =  1.00E-02,  avg # of iterations = 12.9

     negative rho (up, down):  5.955E-01 0.000E+00

     total cpu time spent up to now is        8.7 secs

     total energy              =   -2211.32354429 Ry
     Harris-Foulkes estimate   =   -2218.08813578 Ry
     estimated scf accuracy    <      16.82364068 Ry

     iteration #  2     ecut=    80.00 Ry     beta= 0.40
     Davidson diagonalization with overlap
     ethr =  1.00E-02,  avg # of iterations =  2.0

     negative rho (up, down):  1.316E+00 0.000E+00

     total cpu time spent up to now is       10.1 secs

     total energy              =   -2208.58829913 Ry
     Harris-Foulkes estimate   =   -2211.60581853 Ry
     estimated scf accuracy    <       4.98190975 Ry

     iteration #  3     ecut=    80.00 Ry     beta= 0.40
     Davidson diagonalization with overlap
     ethr =  1.00E-02,  avg # of iterations =  2.5

     negative rho (up, down):  1.153E+00 0.000E+00

     total cpu time spent up to now is       11.8 secs

     total energy              =   -2208.93342703 Ry
     Harris-Foulkes estimate   =   -2209.01434221 Ry
     estimated scf accuracy    <       0.11400164 Ry

     iteration #  4     ecut=    80.00 Ry     beta= 0.40
     Davidson diagonalization with overlap
     ethr =  1.27E-03,  avg # of iterations =  2.3

     negative rho (up, down):  1.218E+00 0.000E+00

     total cpu time spent up to now is       13.3 secs

     total energy              =   -2208.94029084 Ry
     Harris-Foulkes estimate   =   -2208.97450165 Ry
     estimated scf accuracy    <       0.04236536 Ry

     iteration #  5     ecut=    80.00 Ry     beta= 0.40
     Davidson diagonalization with overlap
     ethr =  4.71E-04,  avg # of iterations =  2.2

     negative rho (up, down):  1.222E+00 0.000E+00

     total cpu time spent up to now is       14.6 secs

     total energy              =   -2208.94644965 Ry
     Harris-Foulkes estimate   =   -2208.94656684 Ry
     estimated scf accuracy    <       0.00029204 Ry

     iteration #  6     ecut=    80.00 Ry     beta= 0.40
     Davidson diagonalization with overlap
     c_bands:  1 eigenvalues not converged
     ethr =  3.24E-06,  avg # of iterations = 10.5

     negative rho (up, down):  1.222E+00 0.000E+00

     total cpu time spent up to now is       18.0 secs

     total energy              =   -2208.94804955 Ry
     Harris-Foulkes estimate   =   -2208.94783962 Ry
     estimated scf accuracy    <       0.00002138 Ry

     iteration #  7     ecut=    80.00 Ry     beta= 0.40
     Davidson diagonalization with overlap
     ethr =  2.38E-07,  avg # of iterations =  3.9

     negative rho (up, down):  1.224E+00 0.000E+00

     total cpu time spent up to now is       19.8 secs

     total energy              =   -2208.94807867 Ry
     Harris-Foulkes estimate   =   -2208.94806966 Ry
     estimated scf accuracy    <       0.00000694 Ry

     iteration #  8     ecut=    80.00 Ry     beta= 0.40
     Davidson diagonalization with overlap
     ethr =  7.72E-08,  avg # of iterations =  1.6

     negative rho (up, down):  1.224E+00 0.000E+00

     total cpu time spent up to now is       21.1 secs

     total energy              =   -2208.94807772 Ry
     Harris-Foulkes estimate   =   -2208.94807976 Ry
     estimated scf accuracy    <       0.00000177 Ry

     iteration #  9     ecut=    80.00 Ry     beta= 0.40
     Davidson diagonalization with overlap
     ethr =  1.97E-08,  avg # of iterations =  3.0

     negative rho (up, down):  1.224E+00 0.000E+00

     total cpu time spent up to now is       22.6 secs

     total energy              =   -2208.94807850 Ry
     Harris-Foulkes estimate   =   -2208.94807855 Ry
     estimated scf accuracy    <       0.00000003 Ry

     iteration # 10     ecut=    80.00 Ry     beta= 0.40
     Davidson diagonalization with overlap
     ethr =  3.71E-10,  avg # of iterations =  4.3

     negative rho (up, down):  1.224E+00 0.000E+00

     total cpu time spent up to now is       24.5 secs

     total energy              =   -2208.94807857 Ry
     Harris-Foulkes estimate   =   -2208.94807856 Ry
     estimated scf accuracy    <          2.3E-09 Ry

     iteration # 11     ecut=    80.00 Ry     beta= 0.40
     Davidson diagonalization with overlap
     ethr =  2.56E-11,  avg # of iterations =  2.9

     negative rho (up, down):  1.224E+00 0.000E+00

     total cpu time spent up to now is       26.0 secs

     total energy              =   -2208.94807856 Ry
     Harris-Foulkes estimate   =   -2208.94807857 Ry
     estimated scf accuracy    <          1.0E-09 Ry

     iteration # 12     ecut=    80.00 Ry     beta= 0.40
     Davidson diagonalization with overlap
     ethr =  1.15E-11,  avg # of iterations =  2.9

     negative rho (up, down):  1.224E+00 0.000E+00

     total cpu time spent up to now is       27.6 secs

     End of self-consistent calculation

     Number of k-points >= 100: set verbosity='high' to print the bands.

     the Fermi energy is -2603.2260 ev

!    total energy              =   -2208.94807855 Ry
     Harris-Foulkes estimate   =   -2208.94807855 Ry
     estimated scf accuracy    <          2.6E-11 Ry

     total all-electron energy =    -17664.033854 Ry

     The total energy is the sum of the following terms:

     one-electron contribution =   -1727.49350805 Ry
     hartree contribution      =       5.94122357 Ry
     xc contribution           =     -25.17959537 Ry
     ewald contribution        =     -75.29836773 Ry
     one-center paw contrib.   =    -386.91595735 Ry
     smearing contrib. (-TS)   =      -0.00187362 Ry

     convergence has been achieved in  12 iterations

     negative rho (up, down):  1.224E+00 0.000E+00

     Forces acting on atoms (cartesian axes, Ry/au):

     atom    1 type  1   force =     0.00000000    0.00000000   -0.00000000
     atom    2 type  2   force =     0.00000000    0.00000000    0.00000000
     atom    3 type  3   force =     0.00000000    0.00000000    0.00000000

     Total force =     0.000000     Total SCF correction =     0.000000


     Computing stress (Cartesian axis) and pressure


     negative rho (up, down):  1.224E+00 0.000E+00
          total   stress  (Ry/bohr**3)                   (kbar)     P=********
 -19.46822281   0.00000000   0.00000000    **********      0.00      0.00
   0.00000000 -19.46822281  -0.00000000          0.00**********     -0.00
   0.00000000  -0.00000000 -19.46822281          0.00     -0.00**********


     init_run     :      0.68s CPU      1.43s WALL (       1 calls)
     electrons    :     11.37s CPU     23.28s WALL (       1 calls)
     forces       :      0.10s CPU      0.24s WALL (       1 calls)
     stress       :      0.29s CPU      0.55s WALL (       1 calls)

     Called by init_run:
     wfcinit      :      0.34s CPU      0.69s WALL (       1 calls)
     potinit      :      0.08s CPU      0.26s WALL (       1 calls)
     hinit0       :      0.24s CPU      0.44s WALL (       1 calls)

     Called by electrons:
     c_bands      :      9.60s CPU     18.30s WALL (      12 calls)
     sum_band     :      1.13s CPU      2.13s WALL (      12 calls)
     v_of_rho     :      0.04s CPU      0.07s WALL (      13 calls)
     newd         :      0.09s CPU      0.15s WALL (      13 calls)
     PAW_pot      :      0.58s CPU      2.82s WALL (      13 calls)
     mix_rho      :      0.01s CPU      0.02s WALL (      12 calls)

     Called by c_bands:
     init_us_2    :      0.24s CPU      0.28s WALL (    2970 calls)
     cegterg      :      9.17s CPU     17.48s WALL (    1320 calls)

     Called by sum_band:
     sum_band:bec :      0.01s CPU      0.01s WALL (    1320 calls)
     addusdens    :      0.06s CPU      0.07s WALL (      12 calls)

     Called by *egterg:
     h_psi        :      5.98s CPU     11.84s WALL (    7037 calls)
     s_psi        :      0.38s CPU      0.46s WALL (    7037 calls)
     g_psi        :      0.02s CPU      0.03s WALL (    5607 calls)
     cdiaghg      :      1.23s CPU      1.99s WALL (    6927 calls)

     Called by h_psi:
     h_psi:pot    :      5.96s CPU     11.82s WALL (    7037 calls)
     h_psi:calbec :      0.66s CPU      1.68s WALL (    7037 calls)
     vloc_psi     :      4.89s CPU      9.63s WALL (    7037 calls)
     add_vuspsi   :      0.39s CPU      0.48s WALL (    7037 calls)

     General routines
     calbec       :      0.96s CPU      2.46s WALL (    8907 calls)
     fft          :      0.04s CPU      0.16s WALL (     169 calls)
     ffts         :      0.00s CPU      0.00s WALL (      12 calls)
     fftw         :      5.20s CPU     10.52s WALL (   95004 calls)

     Parallel routines
     fft_scatt_xy :      0.49s CPU      0.60s WALL (   95185 calls)
     fft_scatt_yz :      2.35s CPU      7.15s WALL (   95185 calls)

     PWSCF        :    14.30s CPU        28.43s WALL


   This run was terminated on:  12:36:56  24Oct2018            

=------------------------------------------------------------------------------=
   JOB DONE.
=------------------------------------------------------------------------------=
