
     Program PWSCF v.6.3MaX starts on 23Oct2018 at 12:35:51 

     This program is part of the open-source Quantum ESPRESSO suite
     for quantum simulation of materials; please cite
         "P. Giannozzi et al., J. Phys.:Condens. Matter 21 395502 (2009);
         "P. Giannozzi et al., J. Phys.:Condens. Matter 29 465901 (2017);
          URL http://www.quantum-espresso.org", 
     in publications or presentations arising from this work. More details at
     http://www.quantum-espresso.org/quote

     Parallel version (MPI), running on     8 processors

     MPI processes distributed on     1 nodes
     R & G space division:  proc/nbgrp/npool/nimage =       8
     Waiting for input...
     Reading input from standard input
Warning: card &CELL ignored
Warning: card                CELL_DYNAMICS = 'BFGS' , ignored
Warning: card / ignored

     Current dimensions of program PWSCF are:
     Max number of different atomic species (ntypx) = 10
     Max number of k-points (npk) =  40000
     Max angular momentum in pseudopotentials (lmaxx) =  3
               file N.pbe-n-kjpaw_psl.1.0.0.UPF: wavefunction(s)  2S renormalized
               file Na.pbe-spnl-kjpaw_psl.1.0.0.UPF: wavefunction(s)  2P renormalized

     Subspace diagonalization in iterative solution of the eigenvalue problem:
     a serial algorithm will be used


     Parallelization info
     --------------------
     sticks:   dense  smooth     PW     G-vecs:    dense   smooth      PW
     Min         149     149     45                 3447     3447     579
     Max         151     151     46                 3448     3448     582
     Sum        1201    1201    367                27581    27581    4645



     bravais-lattice index     =            2
     lattice parameter (alat)  =      14.6200  a.u.
     unit-cell volume          =     781.2358 (a.u.)^3
     number of atoms/cell      =            3
     number of atomic types    =            3
     number of electrons       =         9.00
     number of Kohn-Sham states=            9
     kinetic-energy cutoff     =      41.0000  Ry
     charge density cutoff     =     164.0000  Ry
     convergence threshold     =      1.0E-09
     mixing beta               =       0.4000
     number of iterations used =            8  plain     mixing
     Exchange-correlation      = SLA PW PBX PBC ( 1  4  3  4 0 0)

     celldm(1)=  14.620000  celldm(2)=   0.000000  celldm(3)=   0.000000
     celldm(4)=   0.000000  celldm(5)=   0.000000  celldm(6)=   0.000000

     crystal axes: (cart. coord. in units of alat)
               a(1) = (  -0.500000   0.000000   0.500000 )  
               a(2) = (   0.000000   0.500000   0.500000 )  
               a(3) = (  -0.500000   0.500000   0.000000 )  

     reciprocal axes: (cart. coord. in units 2 pi/alat)
               b(1) = ( -1.000000 -1.000000  1.000000 )  
               b(2) = (  1.000000  1.000000  1.000000 )  
               b(3) = ( -1.000000  1.000000 -1.000000 )  


     PseudoPot. # 1 for N  read from file:
     ./../ps/N.pbe-n-kjpaw_psl.1.0.0.UPF
     MD5 check sum: 200139db3989ad6e773ddd42f12fc3a8
     Pseudo is Projector augmented-wave + core cor, Zval =  5.0
     Generated using "atomic" code by A. Dal Corso v.6.3
     Shape of augmentation charge: PSQ
     Using radial grid of 1085 points,  4 beta functions with: 
                l(1) =   0
                l(2) =   0
                l(3) =   1
                l(4) =   1
     Q(r) pseudized with 0 coefficients 


     PseudoPot. # 2 for Na read from file:
     ./../ps/Na.pbe-spnl-kjpaw_psl.1.0.0.UPF
     MD5 check sum: 09e782c158f17eb2240230c4112357ee
     Pseudo is Projector augmented-wave + core cor, Zval =  9.0
     Generated using "atomic" code by A. Dal Corso v.6.3
     Shape of augmentation charge: PSQ
     Using radial grid of 1121 points,  4 beta functions with: 
                l(1) =   0
                l(2) =   0
                l(3) =   1
                l(4) =   1
     Q(r) pseudized with 0 coefficients 


     PseudoPot. # 3 for Cs read from file:
     ./../ps/Cs.pbe-spnl-kjpaw_psl.1.0.0.UPF
     MD5 check sum: f98336d4a4407e24c1ab1e3bc36275e8
     Pseudo is Projector augmented-wave + core cor, Zval = -5.0
     Generated using "atomic" code by A. Dal Corso v.6.2.2
     Shape of augmentation charge: PSQ
     Using radial grid of 1251 points,  6 beta functions with: 
                l(1) =   0
                l(2) =   0
                l(3) =   1
                l(4) =   1
                l(5) =   2
                l(6) =   2
     Q(r) pseudized with 0 coefficients 


     atomic species   valence    mass     pseudopotential
        N              5.00    14.00670     N ( 1.00)
        Na             9.00    22.98977     Na( 1.00)
        Cs            -5.00   132.90545     Cs( 1.00)

     24 Sym. Ops. (no inversion) found



   Cartesian axes

     site n.     atom                  positions (alat units)
         1           N   tau(   1) = (   0.0000000   0.0000000   0.0000000  )
         2           Na  tau(   2) = (  -0.2500000   0.2500000   0.2500000  )
         3           Cs  tau(   3) = (  -0.7500000   0.7500000   0.7500000  )

     number of k points=   110  Methfessel-Paxton smearing, width (Ry)=  0.0200

     Number of k-points >= 100: set verbosity='high' to print them.

     Dense  grid:    27581 G-vectors     FFT dimensions: (  45,  45,  45)

     Estimated max dynamical RAM per process >      27.03 MB

     Estimated total dynamical RAM >     216.23 MB

     Check: negative/imaginary core charge=   -0.000006    0.000000

     Initial potential from superposition of free atoms

     starting charge   22.95298, renormalised to    9.00000
     Starting wfcs are   14 randomized atomic wfcs
     Checking if some PAW data can be deallocated... 

     total cpu time spent up to now is        3.3 secs

     Self-consistent Calculation

     iteration #  1     ecut=    41.00 Ry     beta= 0.40
     Davidson diagonalization with overlap
     ethr =  1.00E-02,  avg # of iterations = 11.8

     total cpu time spent up to now is        8.1 secs

     total energy              =    -718.17936253 Ry
     Harris-Foulkes estimate   =    -744.73862971 Ry
     estimated scf accuracy    <      45.66581671 Ry

     iteration #  2     ecut=    41.00 Ry     beta= 0.40
     Davidson diagonalization with overlap
     ethr =  1.00E-02,  avg # of iterations =  3.0

     negative rho (up, down):  1.346E-06 0.000E+00

     total cpu time spent up to now is       10.9 secs

     total energy              =    -709.48673166 Ry
     Harris-Foulkes estimate   =    -719.66970465 Ry
     estimated scf accuracy    <      11.46927488 Ry

     iteration #  3     ecut=    41.00 Ry     beta= 0.40
     Davidson diagonalization with overlap
     ethr =  1.00E-02,  avg # of iterations = 10.0

     negative rho (up, down):  8.157E-02 0.000E+00

     total cpu time spent up to now is       15.9 secs

     total energy              =    -712.43468504 Ry
     Harris-Foulkes estimate   =    -713.29780315 Ry
     estimated scf accuracy    <       1.38034055 Ry

     iteration #  4     ecut=    41.00 Ry     beta= 0.40
     Davidson diagonalization with overlap
     ethr =  1.00E-02,  avg # of iterations =  3.0

     negative rho (up, down):  1.598E-01 0.000E+00

     total cpu time spent up to now is       18.4 secs

     total energy              =    -712.73115421 Ry
     Harris-Foulkes estimate   =    -712.87478226 Ry
     estimated scf accuracy    <       0.26848643 Ry

     iteration #  5     ecut=    41.00 Ry     beta= 0.40
     Davidson diagonalization with overlap
     ethr =  2.98E-03,  avg # of iterations =  4.2

     negative rho (up, down):  2.299E-01 0.000E+00

     total cpu time spent up to now is       21.1 secs

     total energy              =    -712.67316485 Ry
     Harris-Foulkes estimate   =    -712.91595265 Ry
     estimated scf accuracy    <       0.37526561 Ry

     iteration #  6     ecut=    41.00 Ry     beta= 0.40
     Davidson diagonalization with overlap
     ethr =  2.98E-03,  avg # of iterations =  2.0

     negative rho (up, down):  2.289E-01 0.000E+00

     total cpu time spent up to now is       23.2 secs

     total energy              =    -712.74879431 Ry
     Harris-Foulkes estimate   =    -712.74879725 Ry
     estimated scf accuracy    <       0.00002821 Ry

     iteration #  7     ecut=    41.00 Ry     beta= 0.40
     Davidson diagonalization with overlap
     ethr =  3.13E-07,  avg # of iterations = 13.3

     negative rho (up, down):  2.266E-01 0.000E+00

     total cpu time spent up to now is       29.4 secs

     total energy              =    -712.75064960 Ry
     Harris-Foulkes estimate   =    -712.75069135 Ry
     estimated scf accuracy    <       0.00007608 Ry

     iteration #  8     ecut=    41.00 Ry     beta= 0.40
     Davidson diagonalization with overlap
     ethr =  3.13E-07,  avg # of iterations =  2.0

     negative rho (up, down):  2.280E-01 0.000E+00

     total cpu time spent up to now is       31.6 secs

     total energy              =    -712.75065286 Ry
     Harris-Foulkes estimate   =    -712.75065929 Ry
     estimated scf accuracy    <       0.00001285 Ry

     iteration #  9     ecut=    41.00 Ry     beta= 0.40
     Davidson diagonalization with overlap
     ethr =  1.43E-07,  avg # of iterations =  1.0

     negative rho (up, down):  2.279E-01 0.000E+00

     total cpu time spent up to now is       33.5 secs

     total energy              =    -712.75065170 Ry
     Harris-Foulkes estimate   =    -712.75065355 Ry
     estimated scf accuracy    <       0.00000255 Ry

     iteration # 10     ecut=    41.00 Ry     beta= 0.40
     Davidson diagonalization with overlap
     ethr =  2.83E-08,  avg # of iterations =  2.0

     negative rho (up, down):  2.278E-01 0.000E+00

     total cpu time spent up to now is       35.7 secs

     total energy              =    -712.75065167 Ry
     Harris-Foulkes estimate   =    -712.75065197 Ry
     estimated scf accuracy    <       0.00000047 Ry

     iteration # 11     ecut=    41.00 Ry     beta= 0.40
     Davidson diagonalization with overlap
     ethr =  5.24E-09,  avg # of iterations =  2.9

     negative rho (up, down):  2.278E-01 0.000E+00

     total cpu time spent up to now is       37.8 secs

     total energy              =    -712.75065164 Ry
     Harris-Foulkes estimate   =    -712.75065173 Ry
     estimated scf accuracy    <       0.00000012 Ry

     iteration # 12     ecut=    41.00 Ry     beta= 0.40
     Davidson diagonalization with overlap
     ethr =  1.29E-09,  avg # of iterations =  2.1

     negative rho (up, down):  2.278E-01 0.000E+00

     total cpu time spent up to now is       39.9 secs

     total energy              =    -712.75065162 Ry
     Harris-Foulkes estimate   =    -712.75065165 Ry
     estimated scf accuracy    <       0.00000002 Ry

     iteration # 13     ecut=    41.00 Ry     beta= 0.40
     Davidson diagonalization with overlap
     ethr =  2.38E-10,  avg # of iterations =  2.8

     negative rho (up, down):  2.278E-01 0.000E+00

     total cpu time spent up to now is       42.2 secs

     End of self-consistent calculation

     Number of k-points >= 100: set verbosity='high' to print the bands.

     the Fermi energy is  -323.7996 ev

!    total energy              =    -712.75065164 Ry
     Harris-Foulkes estimate   =    -712.75065164 Ry
     estimated scf accuracy    <          8.2E-10 Ry

     total all-electron energy =    -16167.836427 Ry

     The total energy is the sum of the following terms:

     one-electron contribution =    -316.77638800 Ry
     hartree contribution      =      54.73640525 Ry
     xc contribution           =     -28.94116778 Ry
     ewald contribution        =     -36.56760686 Ry
     one-center paw contrib.   =    -385.19324053 Ry
     smearing contrib. (-TS)   =      -0.00865372 Ry

     convergence has been achieved in  13 iterations

     negative rho (up, down):  2.278E-01 0.000E+00

     Forces acting on atoms (cartesian axes, Ry/au):

     atom    1 type  1   force =    -0.00000000   -0.00000000   -0.00000000
     atom    2 type  2   force =     0.00000000    0.00000000    0.00000000
     atom    3 type  3   force =     0.00000000    0.00000000    0.00000000

     Total force =     0.000000     Total SCF correction =     0.000000


     Computing stress (Cartesian axis) and pressure


     negative rho (up, down):  2.278E-01 0.000E+00
          total   stress  (Ry/bohr**3)                   (kbar)     P=********
  -0.14379924  -0.00000000  -0.00000000     -21153.59     -0.00     -0.00
  -0.00000000  -0.14379924   0.00000000         -0.00 -21153.59      0.00
  -0.00000000   0.00000000  -0.14379924         -0.00      0.00 -21153.59


     Writing output data file NNaCs.save/

     init_run     :      1.31s CPU      1.52s WALL (       1 calls)
     electrons    :     35.82s CPU     38.92s WALL (       1 calls)
     forces       :      0.30s CPU      0.33s WALL (       1 calls)
     stress       :      0.76s CPU      0.79s WALL (       1 calls)

     Called by init_run:
     wfcinit      :      0.94s CPU      1.02s WALL (       1 calls)
     potinit      :      0.09s CPU      0.16s WALL (       1 calls)
     hinit0       :      0.24s CPU      0.28s WALL (       1 calls)

     Called by electrons:
     c_bands      :     30.65s CPU     32.63s WALL (      13 calls)
     sum_band     :      3.92s CPU      4.23s WALL (      13 calls)
     v_of_rho     :      0.12s CPU      0.15s WALL (      14 calls)
     newd         :      0.43s CPU      0.45s WALL (      14 calls)
     PAW_pot      :      0.74s CPU      1.56s WALL (      14 calls)
     mix_rho      :      0.04s CPU      0.04s WALL (      13 calls)

     Called by c_bands:
     init_us_2    :      0.98s CPU      1.05s WALL (    3190 calls)
     cegterg      :     29.20s CPU     31.06s WALL (    1430 calls)

     Called by sum_band:
     sum_band:bec :      0.03s CPU      0.03s WALL (    1430 calls)
     addusdens    :      0.39s CPU      0.41s WALL (      13 calls)

     Called by *egterg:
     h_psi        :     21.80s CPU     23.22s WALL (    8178 calls)
     s_psi        :      1.50s CPU      1.59s WALL (    8178 calls)
     g_psi        :      0.08s CPU      0.09s WALL (    6638 calls)
     cdiaghg      :      1.62s CPU      1.72s WALL (    8068 calls)

     Called by h_psi:
     h_psi:pot    :     21.60s CPU     23.01s WALL (    8178 calls)
     h_psi:calbec :      2.25s CPU      2.41s WALL (    8178 calls)
     vloc_psi     :     17.71s CPU     18.86s WALL (    8178 calls)
     add_vuspsi   :      1.60s CPU      1.71s WALL (    8178 calls)

     General routines
     calbec       :      2.91s CPU      3.12s WALL (   10158 calls)
     fft          :      0.06s CPU      0.07s WALL (     180 calls)
     ffts         :      0.00s CPU      0.00s WALL (      13 calls)
     fftw         :     17.40s CPU     18.58s WALL (  102600 calls)

     Parallel routines
     fft_scatt_xy :      2.24s CPU      2.37s WALL (  102793 calls)
     fft_scatt_yz :      3.88s CPU      4.23s WALL (  102793 calls)

     PWSCF        :    40.01s CPU        43.47s WALL


   This run was terminated on:  12:36:35  23Oct2018            

=------------------------------------------------------------------------------=
   JOB DONE.
=------------------------------------------------------------------------------=
