
     Program PWSCF v.6.3MaX starts on 23Oct2018 at 22:52:48 

     This program is part of the open-source Quantum ESPRESSO suite
     for quantum simulation of materials; please cite
         "P. Giannozzi et al., J. Phys.:Condens. Matter 21 395502 (2009);
         "P. Giannozzi et al., J. Phys.:Condens. Matter 29 465901 (2017);
          URL http://www.quantum-espresso.org", 
     in publications or presentations arising from this work. More details at
     http://www.quantum-espresso.org/quote

     Parallel version (MPI), running on     8 processors

     MPI processes distributed on     1 nodes
     R & G space division:  proc/nbgrp/npool/nimage =       8
     Waiting for input...
     Reading input from standard input
Warning: card &CELL ignored
Warning: card                CELL_DYNAMICS = 'BFGS' , ignored
Warning: card / ignored

     Current dimensions of program PWSCF are:
     Max number of different atomic species (ntypx) = 10
     Max number of k-points (npk) =  40000
     Max angular momentum in pseudopotentials (lmaxx) =  3
     Message from routine iosys:
     minimal I/O required, wf_collect reset to FALSE
               file N.pbe-n-kjpaw_psl.1.0.0.UPF: wavefunction(s)  2S renormalized
               file Na.pbe-spnl-kjpaw_psl.1.0.0.UPF: wavefunction(s)  2P renormalized

     Subspace diagonalization in iterative solution of the eigenvalue problem:
     a serial algorithm will be used


     Parallelization info
     --------------------
     sticks:   dense  smooth     PW     G-vecs:    dense   smooth      PW
     Min         225     225     64                 6336     6336     997
     Max         226     226     65                 6339     6339    1000
     Sum        1801    1801    517                50701    50701    7991



     bravais-lattice index     =            2
     lattice parameter (alat)  =      12.8000  a.u.
     unit-cell volume          =     524.2880 (a.u.)^3
     number of atoms/cell      =            3
     number of atomic types    =            3
     number of electrons       =         9.00
     number of Kohn-Sham states=            9
     kinetic-energy cutoff     =      80.0000  Ry
     charge density cutoff     =     320.0000  Ry
     convergence threshold     =      1.0E-09
     mixing beta               =       0.4000
     number of iterations used =            8  plain     mixing
     Exchange-correlation      = SLA PW PBX PBC ( 1  4  3  4 0 0)

     celldm(1)=  12.800000  celldm(2)=   0.000000  celldm(3)=   0.000000
     celldm(4)=   0.000000  celldm(5)=   0.000000  celldm(6)=   0.000000

     crystal axes: (cart. coord. in units of alat)
               a(1) = (  -0.500000   0.000000   0.500000 )  
               a(2) = (   0.000000   0.500000   0.500000 )  
               a(3) = (  -0.500000   0.500000   0.000000 )  

     reciprocal axes: (cart. coord. in units 2 pi/alat)
               b(1) = ( -1.000000 -1.000000  1.000000 )  
               b(2) = (  1.000000  1.000000  1.000000 )  
               b(3) = ( -1.000000  1.000000 -1.000000 )  


     PseudoPot. # 1 for N  read from file:
     ./ps/N.pbe-n-kjpaw_psl.1.0.0.UPF
     MD5 check sum: 200139db3989ad6e773ddd42f12fc3a8
     Pseudo is Projector augmented-wave + core cor, Zval =  5.0
     Generated using "atomic" code by A. Dal Corso v.6.3
     Shape of augmentation charge: PSQ
     Using radial grid of 1085 points,  4 beta functions with: 
                l(1) =   0
                l(2) =   0
                l(3) =   1
                l(4) =   1
     Q(r) pseudized with 0 coefficients 


     PseudoPot. # 2 for Na read from file:
     ./ps/Na.pbe-spnl-kjpaw_psl.1.0.0.UPF
     MD5 check sum: 09e782c158f17eb2240230c4112357ee
     Pseudo is Projector augmented-wave + core cor, Zval =  9.0
     Generated using "atomic" code by A. Dal Corso v.6.3
     Shape of augmentation charge: PSQ
     Using radial grid of 1121 points,  4 beta functions with: 
                l(1) =   0
                l(2) =   0
                l(3) =   1
                l(4) =   1
     Q(r) pseudized with 0 coefficients 


     PseudoPot. # 3 for Cs read from file:
     ./ps/Cs.pbe-spnl-kjpaw_psl.1.0.0.UPF
     MD5 check sum: f98336d4a4407e24c1ab1e3bc36275e8
     Pseudo is Projector augmented-wave + core cor, Zval = -5.0
     Generated using "atomic" code by A. Dal Corso v.6.2.2
     Shape of augmentation charge: PSQ
     Using radial grid of 1251 points,  6 beta functions with: 
                l(1) =   0
                l(2) =   0
                l(3) =   1
                l(4) =   1
                l(5) =   2
                l(6) =   2
     Q(r) pseudized with 0 coefficients 


     atomic species   valence    mass     pseudopotential
        N              5.00    14.00670     N ( 1.00)
        Na             9.00    22.98977     Na( 1.00)
        Cs            -5.00   132.90545     Cs( 1.00)

     24 Sym. Ops. (no inversion) found



   Cartesian axes

     site n.     atom                  positions (alat units)
         1           N   tau(   1) = (   0.0000000   0.0000000   0.0000000  )
         2           Na  tau(   2) = (  -0.2500000   0.2500000   0.2500000  )
         3           Cs  tau(   3) = (  -0.7500000   0.7500000   0.7500000  )

     number of k points=   110  Methfessel-Paxton smearing, width (Ry)=  0.0200

     Number of k-points >= 100: set verbosity='high' to print them.

     Dense  grid:    50701 G-vectors     FFT dimensions: (  54,  54,  54)

     Estimated max dynamical RAM per process >      45.10 MB

     Estimated total dynamical RAM >     360.78 MB

     Check: negative/imaginary core charge=   -0.000003    0.000000

     Initial potential from superposition of free atoms

     starting charge   22.95298, renormalised to    9.00000
     Starting wfcs are   14 randomized atomic wfcs
     Checking if some PAW data can be deallocated... 

     total cpu time spent up to now is        7.4 secs

     Self-consistent Calculation

     iteration #  1     ecut=    80.00 Ry     beta= 0.40
     Davidson diagonalization with overlap
     ethr =  1.00E-02,  avg # of iterations =  9.1

     negative rho (up, down):  1.116E+00 0.000E+00

     total cpu time spent up to now is       28.0 secs

     total energy              =    -748.58887621 Ry
     Harris-Foulkes estimate   =    -834.03665657 Ry
     estimated scf accuracy    <     163.17140941 Ry

     iteration #  2     ecut=    80.00 Ry     beta= 0.40
     Davidson diagonalization with overlap
     ethr =  1.00E-02,  avg # of iterations = 11.2

     negative rho (up, down):  7.335E-01 0.000E+00

     total cpu time spent up to now is       47.0 secs

     total energy              =    -793.71980708 Ry
     Harris-Foulkes estimate   =    -823.65523792 Ry
     estimated scf accuracy    <      82.30777193 Ry

     iteration #  3     ecut=    80.00 Ry     beta= 0.40
     Davidson diagonalization with overlap
     ethr =  1.00E-02,  avg # of iterations =  3.0

     negative rho (up, down):  7.049E-02 0.000E+00

     total cpu time spent up to now is       54.6 secs

     total energy              =    -799.50647273 Ry
     Harris-Foulkes estimate   =    -804.79173979 Ry
     estimated scf accuracy    <      26.05465611 Ry

     iteration #  4     ecut=    80.00 Ry     beta= 0.40
     Davidson diagonalization with overlap
     ethr =  1.00E-02,  avg # of iterations =  1.0

     negative rho (up, down):  6.574E-01 0.000E+00

     total cpu time spent up to now is       60.3 secs

     total energy              =    -789.20620059 Ry
     Harris-Foulkes estimate   =    -799.54889402 Ry
     estimated scf accuracy    <      17.06949149 Ry

     iteration #  5     ecut=    80.00 Ry     beta= 0.40
     Davidson diagonalization with overlap
     ethr =  1.00E-02,  avg # of iterations =  7.3

     negative rho (up, down):  5.992E-01 0.000E+00

     total cpu time spent up to now is       74.9 secs

     total energy              =    -818.48282825 Ry
     Harris-Foulkes estimate   =    -822.70865118 Ry
     estimated scf accuracy    <      57.49822636 Ry

     iteration #  6     ecut=    80.00 Ry     beta= 0.40
     Davidson diagonalization with overlap
     ethr =  1.00E-02,  avg # of iterations =  1.1

     negative rho (up, down):  2.086E-02 0.000E+00

     total cpu time spent up to now is       80.5 secs

     total energy              =    -801.37284260 Ry
     Harris-Foulkes estimate   =    -818.49702277 Ry
     estimated scf accuracy    <      51.87289033 Ry

     iteration #  7     ecut=    80.00 Ry     beta= 0.40
     Davidson diagonalization with overlap
     ethr =  1.00E-02,  avg # of iterations =  3.0

     negative rho (up, down):  1.146E-01 0.000E+00

     total cpu time spent up to now is       87.9 secs

     total energy              =    -784.60957857 Ry
     Harris-Foulkes estimate   =    -806.17607208 Ry
     estimated scf accuracy    <      44.11235055 Ry

     iteration #  8     ecut=    80.00 Ry     beta= 0.40
     Davidson diagonalization with overlap
     ethr =  1.00E-02,  avg # of iterations =  6.4

     negative rho (up, down):  1.954E-04 0.000E+00

     total cpu time spent up to now is      100.8 secs

     total energy              =    -797.58772528 Ry
     Harris-Foulkes estimate   =    -810.55977691 Ry
     estimated scf accuracy    <      31.28392407 Ry

     iteration #  9     ecut=    80.00 Ry     beta= 0.40
     Davidson diagonalization with overlap
     ethr =  1.00E-02,  avg # of iterations =  3.0

     negative rho (up, down):  2.270E-04 0.000E+00

     total cpu time spent up to now is      108.2 secs

     total energy              =    -801.69862022 Ry
     Harris-Foulkes estimate   =    -801.30427233 Ry
     estimated scf accuracy    <       5.42453832 Ry

     iteration # 10     ecut=    80.00 Ry     beta= 0.40
     Davidson diagonalization with overlap
     ethr =  1.00E-02,  avg # of iterations =  1.0

     negative rho (up, down):  1.120E-04 0.000E+00

     total cpu time spent up to now is      114.1 secs

     total energy              =    -801.09119477 Ry
     Harris-Foulkes estimate   =    -801.71348848 Ry
     estimated scf accuracy    <       6.02515710 Ry

     iteration # 11     ecut=    80.00 Ry     beta= 0.40
     Davidson diagonalization with overlap
     ethr =  1.00E-02,  avg # of iterations =  1.0

     negative rho (up, down):  1.257E-04 0.000E+00

     total cpu time spent up to now is      119.9 secs

     total energy              =    -801.26813543 Ry
     Harris-Foulkes estimate   =    -801.67382301 Ry
     estimated scf accuracy    <       3.31083066 Ry

     iteration # 12     ecut=    80.00 Ry     beta= 0.40
     Davidson diagonalization with overlap
     ethr =  1.00E-02,  avg # of iterations =  1.0

     negative rho (up, down):  2.249E-04 0.000E+00

     total cpu time spent up to now is      125.8 secs

     total energy              =    -800.49548155 Ry
     Harris-Foulkes estimate   =    -801.47077928 Ry
     estimated scf accuracy    <       5.66840922 Ry

     iteration # 13     ecut=    80.00 Ry     beta= 0.40
     Davidson diagonalization with overlap
     ethr =  1.00E-02,  avg # of iterations =  2.0

     negative rho (up, down):  2.055E-04 0.000E+00

     total cpu time spent up to now is      132.7 secs

     total energy              =    -810.33744315 Ry
     Harris-Foulkes estimate   =    -807.73103677 Ry
     estimated scf accuracy    <      25.39110940 Ry

     iteration # 14     ecut=    80.00 Ry     beta= 0.40
     Davidson diagonalization with overlap
     ethr =  1.00E-02,  avg # of iterations =  1.0

     negative rho (up, down):  3.742E-04 0.000E+00

     total cpu time spent up to now is      138.4 secs

     total energy              =    -811.69953761 Ry
     Harris-Foulkes estimate   =    -810.34618053 Ry
     estimated scf accuracy    <      28.77785186 Ry

     iteration # 15     ecut=    80.00 Ry     beta= 0.40
     Davidson diagonalization with overlap
     ethr =  1.00E-02,  avg # of iterations =  1.0

     negative rho (up, down):  3.136E-03 0.000E+00

     total cpu time spent up to now is      144.5 secs

     total energy              =    -793.89654102 Ry
     Harris-Foulkes estimate   =    -811.70130473 Ry
     estimated scf accuracy    <      31.16539460 Ry

     iteration # 16     ecut=    80.00 Ry     beta= 0.40
     Davidson diagonalization with overlap
     ethr =  1.00E-02,  avg # of iterations =  3.0

     negative rho (up, down):  9.632E-04 0.000E+00

     total cpu time spent up to now is      151.8 secs

     total energy              =    -803.03360124 Ry
     Harris-Foulkes estimate   =    -803.18180426 Ry
     estimated scf accuracy    <       3.60257827 Ry

     iteration # 17     ecut=    80.00 Ry     beta= 0.40
     Davidson diagonalization with overlap
     ethr =  1.00E-02,  avg # of iterations =  1.0

     negative rho (up, down):  1.056E-02 0.000E+00

     total cpu time spent up to now is      157.6 secs

     total energy              =    -802.87448688 Ry
     Harris-Foulkes estimate   =    -803.04238684 Ry
     estimated scf accuracy    <       3.87098632 Ry

     iteration # 18     ecut=    80.00 Ry     beta= 0.40
     Davidson diagonalization with overlap
     ethr =  1.00E-02,  avg # of iterations =  1.0

     negative rho (up, down):  5.872E-04 0.000E+00

     total cpu time spent up to now is      163.4 secs

     total energy              =    -803.21213243 Ry
     Harris-Foulkes estimate   =    -803.57750348 Ry
     estimated scf accuracy    <       8.62260753 Ry

     iteration # 19     ecut=    80.00 Ry     beta= 0.40
     Davidson diagonalization with overlap
     ethr =  1.00E-02,  avg # of iterations =  1.0

     negative rho (up, down):  3.860E-04 0.000E+00

     total cpu time spent up to now is      169.2 secs

     total energy              =    -802.96858875 Ry
     Harris-Foulkes estimate   =    -803.21276560 Ry
     estimated scf accuracy    <       8.16942304 Ry

     iteration # 20     ecut=    80.00 Ry     beta= 0.40
     Davidson diagonalization with overlap
     ethr =  1.00E-02,  avg # of iterations =  1.0

     negative rho (up, down):  1.260E-03 0.000E+00

     total cpu time spent up to now is      175.2 secs

     total energy              =    -802.59088646 Ry
     Harris-Foulkes estimate   =    -802.96931385 Ry
     estimated scf accuracy    <       7.83180320 Ry

     iteration # 21     ecut=    80.00 Ry     beta= 0.40
     Davidson diagonalization with overlap
     ethr =  1.00E-02,  avg # of iterations =  1.0

     negative rho (up, down):  3.508E-04 0.000E+00

     total cpu time spent up to now is      181.0 secs

     total energy              =    -802.70638258 Ry
     Harris-Foulkes estimate   =    -802.79603064 Ry
     estimated scf accuracy    <       3.21963470 Ry

     iteration # 22     ecut=    80.00 Ry     beta= 0.40
     Davidson diagonalization with overlap
     ethr =  1.00E-02,  avg # of iterations =  1.0

     negative rho (up, down):  2.726E-04 0.000E+00

     total cpu time spent up to now is      186.7 secs

     total energy              =    -802.51629656 Ry
     Harris-Foulkes estimate   =    -802.71190321 Ry
     estimated scf accuracy    <       3.08129364 Ry

     iteration # 23     ecut=    80.00 Ry     beta= 0.40
     Davidson diagonalization with overlap
     ethr =  1.00E-02,  avg # of iterations =  1.0

     negative rho (up, down):  3.694E-03 0.000E+00

     total cpu time spent up to now is      192.6 secs

     total energy              =    -802.39743083 Ry
     Harris-Foulkes estimate   =    -802.53324628 Ry
     estimated scf accuracy    <       2.86280057 Ry

     iteration # 24     ecut=    80.00 Ry     beta= 0.40
     Davidson diagonalization with overlap
     ethr =  1.00E-02,  avg # of iterations =  1.0

     negative rho (up, down):  5.880E-03 0.000E+00

     total cpu time spent up to now is      198.5 secs

     total energy              =    -802.49336499 Ry
     Harris-Foulkes estimate   =    -802.42144000 Ry
     estimated scf accuracy    <       2.78471031 Ry

     iteration # 25     ecut=    80.00 Ry     beta= 0.40
     Davidson diagonalization with overlap
     ethr =  1.00E-02,  avg # of iterations =  1.0

     negative rho (up, down):  2.951E-03 0.000E+00

     total cpu time spent up to now is      204.1 secs

     total energy              =    -802.64930534 Ry
     Harris-Foulkes estimate   =    -802.50289070 Ry
     estimated scf accuracy    <       2.88538743 Ry

     iteration # 26     ecut=    80.00 Ry     beta= 0.40
     Davidson diagonalization with overlap
     ethr =  1.00E-02,  avg # of iterations =  1.0

     negative rho (up, down):  1.857E-02 0.000E+00

     total cpu time spent up to now is      209.7 secs

     total energy              =    -801.38144821 Ry
     Harris-Foulkes estimate   =    -802.65545603 Ry
     estimated scf accuracy    <       3.05247618 Ry

     iteration # 27     ecut=    80.00 Ry     beta= 0.40
     Davidson diagonalization with overlap
     ethr =  1.00E-02,  avg # of iterations =  1.0

     negative rho (up, down):  1.473E-02 0.000E+00

     total cpu time spent up to now is      215.5 secs

     total energy              =    -805.18297666 Ry
     Harris-Foulkes estimate   =    -802.36137094 Ry
     estimated scf accuracy    <       6.56601196 Ry

     iteration # 28     ecut=    80.00 Ry     beta= 0.40
     Davidson diagonalization with overlap
     ethr =  1.00E-02,  avg # of iterations =  1.0

     negative rho (up, down):  3.805E-03 0.000E+00

     total cpu time spent up to now is      221.4 secs

     total energy              =    -799.83630577 Ry
     Harris-Foulkes estimate   =    -805.26895966 Ry
     estimated scf accuracy    <      33.51281067 Ry

     iteration # 29     ecut=    80.00 Ry     beta= 0.40
     Davidson diagonalization with overlap
     ethr =  1.00E-02,  avg # of iterations =  1.0

     negative rho (up, down):  1.753E-04 0.000E+00

     total cpu time spent up to now is      227.2 secs

     total energy              =    -801.13327929 Ry
     Harris-Foulkes estimate   =    -802.47345357 Ry
     estimated scf accuracy    <       6.67984338 Ry

     iteration # 30     ecut=    80.00 Ry     beta= 0.40
     Davidson diagonalization with overlap
     ethr =  1.00E-02,  avg # of iterations =  1.0

     negative rho (up, down):  1.213E-03 0.000E+00

     total cpu time spent up to now is      232.9 secs

     total energy              =    -801.68501667 Ry
     Harris-Foulkes estimate   =    -802.10365696 Ry
     estimated scf accuracy    <       2.43889174 Ry

     iteration # 31     ecut=    80.00 Ry     beta= 0.40
     Davidson diagonalization with overlap
     ethr =  1.00E-02,  avg # of iterations =  1.0

     negative rho (up, down):  6.012E-04 0.000E+00

     total cpu time spent up to now is      238.7 secs

     total energy              =    -801.68621008 Ry
     Harris-Foulkes estimate   =    -801.80901053 Ry
     estimated scf accuracy    <       6.19429979 Ry

     iteration # 32     ecut=    80.00 Ry     beta= 0.40
     Davidson diagonalization with overlap
     ethr =  1.00E-02,  avg # of iterations =  1.0

     negative rho (up, down):  8.049E-04 0.000E+00

     total cpu time spent up to now is      244.6 secs

     total energy              =    -801.80657773 Ry
     Harris-Foulkes estimate   =    -801.75419301 Ry
     estimated scf accuracy    <       2.81506863 Ry

     iteration # 33     ecut=    80.00 Ry     beta= 0.40
     Davidson diagonalization with overlap
     ethr =  1.00E-02,  avg # of iterations =  1.0

     negative rho (up, down):  9.233E-04 0.000E+00

     total cpu time spent up to now is      250.5 secs

     total energy              =    -801.91968100 Ry
     Harris-Foulkes estimate   =    -801.80193448 Ry
     estimated scf accuracy    <       2.11677600 Ry

     iteration # 34     ecut=    80.00 Ry     beta= 0.40
     Davidson diagonalization with overlap
     ethr =  1.00E-02,  avg # of iterations =  1.0

     negative rho (up, down):  8.728E-04 0.000E+00

     total cpu time spent up to now is      256.3 secs

     total energy              =    -802.07035890 Ry
     Harris-Foulkes estimate   =    -801.91991114 Ry
     estimated scf accuracy    <       2.26416555 Ry

     iteration # 35     ecut=    80.00 Ry     beta= 0.40
     Davidson diagonalization with overlap
     ethr =  1.00E-02,  avg # of iterations =  1.0

     negative rho (up, down):  8.796E-04 0.000E+00

     total cpu time spent up to now is      261.9 secs

     total energy              =    -802.07238164 Ry
     Harris-Foulkes estimate   =    -802.07076449 Ry
     estimated scf accuracy    <       2.45659354 Ry

     iteration # 36     ecut=    80.00 Ry     beta= 0.40
     Davidson diagonalization with overlap
     ethr =  1.00E-02,  avg # of iterations =  1.0

     negative rho (up, down):  8.374E-04 0.000E+00

     total cpu time spent up to now is      267.7 secs

     total energy              =    -801.95459801 Ry
     Harris-Foulkes estimate   =    -802.07252786 Ry
     estimated scf accuracy    <       2.45934368 Ry

     iteration # 37     ecut=    80.00 Ry     beta= 0.40
     Davidson diagonalization with overlap
     ethr =  1.00E-02,  avg # of iterations =  1.0

     negative rho (up, down):  8.276E-04 0.000E+00

     total cpu time spent up to now is      273.6 secs

     total energy              =    -801.74309090 Ry
     Harris-Foulkes estimate   =    -801.95466843 Ry
     estimated scf accuracy    <       2.32084045 Ry

     iteration # 38     ecut=    80.00 Ry     beta= 0.40
     Davidson diagonalization with overlap
     ethr =  1.00E-02,  avg # of iterations =  1.0

     negative rho (up, down):  6.157E-04 0.000E+00

     total cpu time spent up to now is      279.6 secs

     total energy              =    -801.76982458 Ry
     Harris-Foulkes estimate   =    -801.74178267 Ry
     estimated scf accuracy    <       0.67282161 Ry

     iteration # 39     ecut=    80.00 Ry     beta= 0.40
     Davidson diagonalization with overlap
     ethr =  7.48E-03,  avg # of iterations =  1.0

     negative rho (up, down):  7.527E-04 0.000E+00

     total cpu time spent up to now is      285.4 secs

     total energy              =    -801.99513707 Ry
     Harris-Foulkes estimate   =    -801.79251940 Ry
     estimated scf accuracy    <       2.10719916 Ry

     iteration # 40     ecut=    80.00 Ry     beta= 0.40
     Davidson diagonalization with overlap
     ethr =  7.48E-03,  avg # of iterations =  1.0

     negative rho (up, down):  6.770E-04 0.000E+00

     total cpu time spent up to now is      291.0 secs

     total energy              =    -801.74137612 Ry
     Harris-Foulkes estimate   =    -801.99491470 Ry
     estimated scf accuracy    <       2.32811200 Ry

     iteration # 41     ecut=    80.00 Ry     beta= 0.40
     Davidson diagonalization with overlap
     ethr =  7.48E-03,  avg # of iterations =  1.0

     negative rho (up, down):  6.229E-04 0.000E+00

     total cpu time spent up to now is      296.7 secs

     total energy              =    -801.85112131 Ry
     Harris-Foulkes estimate   =    -801.74078575 Ry
     estimated scf accuracy    <       0.35472692 Ry

     iteration # 42     ecut=    80.00 Ry     beta= 0.40
     Davidson diagonalization with overlap
     ethr =  3.94E-03,  avg # of iterations =  1.0

     negative rho (up, down):  1.134E-03 0.000E+00

     total cpu time spent up to now is      302.7 secs

     total energy              =    -802.00020763 Ry
     Harris-Foulkes estimate   =    -801.99596669 Ry
     estimated scf accuracy    <       2.33386069 Ry

     iteration # 43     ecut=    80.00 Ry     beta= 0.40
     Davidson diagonalization with overlap
     ethr =  3.94E-03,  avg # of iterations =  1.0

     negative rho (up, down):  1.327E-03 0.000E+00

     total cpu time spent up to now is      308.6 secs

     total energy              =    -801.84679520 Ry
     Harris-Foulkes estimate   =    -802.00027264 Ry
     estimated scf accuracy    <       2.33554539 Ry

     iteration # 44     ecut=    80.00 Ry     beta= 0.40
     Davidson diagonalization with overlap
     ethr =  3.94E-03,  avg # of iterations =  1.0

     negative rho (up, down):  7.795E-04 0.000E+00

     total cpu time spent up to now is      314.4 secs

     total energy              =    -802.18241869 Ry
     Harris-Foulkes estimate   =    -801.84691855 Ry
     estimated scf accuracy    <       2.15884520 Ry

     iteration # 45     ecut=    80.00 Ry     beta= 0.40
     Davidson diagonalization with overlap
     ethr =  3.94E-03,  avg # of iterations =  1.0

     negative rho (up, down):  8.317E-04 0.000E+00

     total cpu time spent up to now is      320.2 secs

     total energy              =    -802.07211548 Ry
     Harris-Foulkes estimate   =    -802.18309916 Ry
     estimated scf accuracy    <       2.55116505 Ry

     iteration # 46     ecut=    80.00 Ry     beta= 0.40
     Davidson diagonalization with overlap
     ethr =  3.94E-03,  avg # of iterations =  1.0

     negative rho (up, down):  9.328E-04 0.000E+00

     total cpu time spent up to now is      325.9 secs

     total energy              =    -802.02647131 Ry
     Harris-Foulkes estimate   =    -802.07225282 Ry
     estimated scf accuracy    <       2.42297012 Ry

     iteration # 47     ecut=    80.00 Ry     beta= 0.40
     Davidson diagonalization with overlap
     ethr =  3.94E-03,  avg # of iterations =  1.0

     negative rho (up, down):  9.130E-04 0.000E+00

     total cpu time spent up to now is      331.8 secs

     total energy              =    -802.42838632 Ry
     Harris-Foulkes estimate   =    -802.02651380 Ry
     estimated scf accuracy    <       2.36792132 Ry

     iteration # 48     ecut=    80.00 Ry     beta= 0.40
     Davidson diagonalization with overlap
     ethr =  3.94E-03,  avg # of iterations =  1.0

     negative rho (up, down):  9.968E-04 0.000E+00

     total cpu time spent up to now is      337.8 secs

     total energy              =    -801.52589036 Ry
     Harris-Foulkes estimate   =    -802.42941862 Ry
     estimated scf accuracy    <       2.84489120 Ry

     iteration # 49     ecut=    80.00 Ry     beta= 0.40
     Davidson diagonalization with overlap
     ethr =  3.94E-03,  avg # of iterations =  1.0

     negative rho (up, down):  1.169E-03 0.000E+00

     total cpu time spent up to now is      343.6 secs

     total energy              =    -803.09612373 Ry
     Harris-Foulkes estimate   =    -802.09084538 Ry
     estimated scf accuracy    <       6.27716083 Ry

     iteration # 50     ecut=    80.00 Ry     beta= 0.40
     Davidson diagonalization with overlap
     ethr =  3.94E-03,  avg # of iterations =  1.0

     negative rho (up, down):  9.360E-04 0.000E+00

     total cpu time spent up to now is      349.4 secs

     total energy              =    -801.94922375 Ry
     Harris-Foulkes estimate   =    -803.10363416 Ry
     estimated scf accuracy    <       7.57143892 Ry

     iteration # 51     ecut=    80.00 Ry     beta= 0.40
     Davidson diagonalization with overlap
     ethr =  3.94E-03,  avg # of iterations =  1.0

     negative rho (up, down):  9.135E-04 0.000E+00

     total cpu time spent up to now is      355.1 secs

     total energy              =    -801.94236705 Ry
     Harris-Foulkes estimate   =    -801.95657237 Ry
     estimated scf accuracy    <       6.13524771 Ry

     iteration # 52     ecut=    80.00 Ry     beta= 0.40
     Davidson diagonalization with overlap
     ethr =  3.94E-03,  avg # of iterations =  1.0

     negative rho (up, down):  9.017E-04 0.000E+00

     total cpu time spent up to now is      361.1 secs

     total energy              =    -801.70431555 Ry
     Harris-Foulkes estimate   =    -801.94255201 Ry
     estimated scf accuracy    <       6.11076250 Ry

     iteration # 53     ecut=    80.00 Ry     beta= 0.40
     Davidson diagonalization with overlap
     ethr =  3.94E-03,  avg # of iterations =  1.0

     negative rho (up, down):  6.853E-04 0.000E+00

     total cpu time spent up to now is      367.0 secs

     total energy              =    -801.90409028 Ry
     Harris-Foulkes estimate   =    -801.74549893 Ry
     estimated scf accuracy    <       1.59293052 Ry

     iteration # 54     ecut=    80.00 Ry     beta= 0.40
     Davidson diagonalization with overlap
     ethr =  3.94E-03,  avg # of iterations =  1.0

     negative rho (up, down):  1.017E-03 0.000E+00

     total cpu time spent up to now is      372.9 secs

     total energy              =    -801.69017198 Ry
     Harris-Foulkes estimate   =    -801.92796724 Ry
     estimated scf accuracy    <       2.24315654 Ry

     iteration # 55     ecut=    80.00 Ry     beta= 0.40
     Davidson diagonalization with overlap
     ethr =  3.94E-03,  avg # of iterations =  1.0

     negative rho (up, down):  1.013E-03 0.000E+00

     total cpu time spent up to now is      378.6 secs

     total energy              =    -800.27308045 Ry
     Harris-Foulkes estimate   =    -801.80495898 Ry
     estimated scf accuracy    <       6.34379433 Ry

     iteration # 56     ecut=    80.00 Ry     beta= 0.40
     Davidson diagonalization with overlap
     ethr =  3.94E-03,  avg # of iterations =  1.0

     negative rho (up, down):  9.237E-04 0.000E+00

     total cpu time spent up to now is      384.4 secs

     total energy              =    -802.81224470 Ry
     Harris-Foulkes estimate   =    -802.73802810 Ry
     estimated scf accuracy    <       3.20349246 Ry

     iteration # 57     ecut=    80.00 Ry     beta= 0.40
     Davidson diagonalization with overlap
     ethr =  3.94E-03,  avg # of iterations =  1.0

     negative rho (up, down):  7.200E-04 0.000E+00

     total cpu time spent up to now is      390.4 secs

     total energy              =    -803.03221129 Ry
     Harris-Foulkes estimate   =    -802.81376348 Ry
     estimated scf accuracy    <       3.29265964 Ry

     iteration # 58     ecut=    80.00 Ry     beta= 0.40
     Davidson diagonalization with overlap
     ethr =  3.94E-03,  avg # of iterations =  1.0

     negative rho (up, down):  7.893E-04 0.000E+00

     total cpu time spent up to now is      396.1 secs

     total energy              =    -802.99397823 Ry
     Harris-Foulkes estimate   =    -803.03338404 Ry
     estimated scf accuracy    <       3.55902221 Ry

     iteration # 59     ecut=    80.00 Ry     beta= 0.40
     Davidson diagonalization with overlap
     ethr =  3.94E-03,  avg # of iterations =  1.0

     negative rho (up, down):  9.114E-04 0.000E+00

     total cpu time spent up to now is      401.9 secs

     total energy              =    -802.78745080 Ry
     Harris-Foulkes estimate   =    -802.99431775 Ry
     estimated scf accuracy    <       3.51817248 Ry

     iteration # 60     ecut=    80.00 Ry     beta= 0.40
     Davidson diagonalization with overlap
     ethr =  3.94E-03,  avg # of iterations =  1.0

     negative rho (up, down):  7.713E-04 0.000E+00

     total cpu time spent up to now is      407.7 secs

     total energy              =    -802.58806907 Ry
     Harris-Foulkes estimate   =    -802.78764089 Ry
     estimated scf accuracy    <       3.28101358 Ry

     iteration # 61     ecut=    80.00 Ry     beta= 0.40
     Davidson diagonalization with overlap
     ethr =  3.94E-03,  avg # of iterations =  1.0

     negative rho (up, down):  7.166E-04 0.000E+00

     total cpu time spent up to now is      413.5 secs

     total energy              =    -802.14975641 Ry
     Harris-Foulkes estimate   =    -802.58829289 Ry
     estimated scf accuracy    <       3.05100461 Ry

     iteration # 62     ecut=    80.00 Ry     beta= 0.40
     Davidson diagonalization with overlap
     ethr =  3.94E-03,  avg # of iterations =  1.0

     negative rho (up, down):  6.287E-04 0.000E+00

     total cpu time spent up to now is      419.5 secs

     total energy              =    -802.79475964 Ry
     Harris-Foulkes estimate   =    -802.15107216 Ry
     estimated scf accuracy    <       2.53518077 Ry

     iteration # 63     ecut=    80.00 Ry     beta= 0.40
     Davidson diagonalization with overlap
     ethr =  3.94E-03,  avg # of iterations =  1.0

     negative rho (up, down):  6.959E-04 0.000E+00

     total cpu time spent up to now is      425.3 secs

     total energy              =    -802.32848901 Ry
     Harris-Foulkes estimate   =    -802.79671929 Ry
     estimated scf accuracy    <       3.28339063 Ry

     iteration # 64     ecut=    80.00 Ry     beta= 0.40
     Davidson diagonalization with overlap
     ethr =  3.94E-03,  avg # of iterations =  1.0

     negative rho (up, down):  2.342E-03 0.000E+00

     total cpu time spent up to now is      431.1 secs

     total energy              =    -799.90550482 Ry
     Harris-Foulkes estimate   =    -802.32920836 Ry
     estimated scf accuracy    <       2.74688360 Ry

     iteration # 65     ecut=    80.00 Ry     beta= 0.40
     Davidson diagonalization with overlap
     ethr =  3.94E-03,  avg # of iterations =  3.0

     negative rho (up, down):  2.381E-03 0.000E+00

     total cpu time spent up to now is      438.5 secs

     total energy              =    -812.77325165 Ry
     Harris-Foulkes estimate   =    -813.32050178 Ry
     estimated scf accuracy    <      61.26334589 Ry

     iteration # 66     ecut=    80.00 Ry     beta= 0.40
     Davidson diagonalization with overlap
     ethr =  3.94E-03,  avg # of iterations =  1.0

     negative rho (up, down):  2.352E-03 0.000E+00

     total cpu time spent up to now is      444.1 secs

     total energy              =    -812.85096844 Ry
     Harris-Foulkes estimate   =    -812.77358167 Ry
     estimated scf accuracy    <      60.54359128 Ry

     iteration # 67     ecut=    80.00 Ry     beta= 0.40
     Davidson diagonalization with overlap
     ethr =  3.94E-03,  avg # of iterations =  1.0

     negative rho (up, down):  2.278E-03 0.000E+00

     total cpu time spent up to now is      450.0 secs

     total energy              =    -812.79342735 Ry
     Harris-Foulkes estimate   =    -812.85099058 Ry
     estimated scf accuracy    <      60.63630020 Ry

     iteration # 68     ecut=    80.00 Ry     beta= 0.40
     Davidson diagonalization with overlap
     ethr =  3.94E-03,  avg # of iterations =  1.0

     negative rho (up, down):  2.541E-03 0.000E+00

     total cpu time spent up to now is      456.0 secs

     total energy              =    -812.03283328 Ry
     Harris-Foulkes estimate   =    -812.79345194 Ry
     estimated scf accuracy    <      60.53599382 Ry

     iteration # 69     ecut=    80.00 Ry     beta= 0.40
     Davidson diagonalization with overlap
     ethr =  3.94E-03,  avg # of iterations =  1.0

     negative rho (up, down):  2.894E-03 0.000E+00

     total cpu time spent up to now is      461.8 secs

     total energy              =    -811.72822731 Ry
     Harris-Foulkes estimate   =    -812.03326803 Ry
     estimated scf accuracy    <      59.60739727 Ry

     iteration # 70     ecut=    80.00 Ry     beta= 0.40
     Davidson diagonalization with overlap
     ethr =  3.94E-03,  avg # of iterations =  1.0

     negative rho (up, down):  4.026E-03 0.000E+00

     total cpu time spent up to now is      467.8 secs

     total energy              =    -811.71215986 Ry
     Harris-Foulkes estimate   =    -811.72835190 Ry
     estimated scf accuracy    <      59.22355777 Ry

     iteration # 71     ecut=    80.00 Ry     beta= 0.40
     Davidson diagonalization with overlap
     ethr =  3.94E-03,  avg # of iterations =  1.0

     negative rho (up, down):  3.608E-03 0.000E+00

     total cpu time spent up to now is      473.6 secs

     total energy              =    -813.11633521 Ry
     Harris-Foulkes estimate   =    -811.71221203 Ry
     estimated scf accuracy    <      59.20648923 Ry

     iteration # 72     ecut=    80.00 Ry     beta= 0.40
     Davidson diagonalization with overlap
     ethr =  3.94E-03,  avg # of iterations =  1.0

     negative rho (up, down):  3.199E-04 0.000E+00

     total cpu time spent up to now is      479.4 secs

     total energy              =    -811.86391434 Ry
     Harris-Foulkes estimate   =    -813.11762625 Ry
     estimated scf accuracy    <      61.01830886 Ry

     iteration # 73     ecut=    80.00 Ry     beta= 0.40
     Davidson diagonalization with overlap
     ethr =  3.94E-03,  avg # of iterations =  1.0

     negative rho (up, down):  1.303E+00 0.000E+00

     total cpu time spent up to now is      485.3 secs

     total energy              =    -755.58745175 Ry
     Harris-Foulkes estimate   =    -811.86629305 Ry
     estimated scf accuracy    <      59.64286923 Ry

     iteration # 74     ecut=    80.00 Ry     beta= 0.40
     Davidson diagonalization with overlap
     ethr =  3.94E-03,  avg # of iterations = 15.0

     negative rho (up, down):  4.741E-01 0.000E+00

     total cpu time spent up to now is      509.7 secs

     total energy              =    -785.50577167 Ry
     Harris-Foulkes estimate   =    -901.24979402 Ry
     estimated scf accuracy    <     127.74421335 Ry

     iteration # 75     ecut=    80.00 Ry     beta= 0.40
     Davidson diagonalization with overlap
     ethr =  3.94E-03,  avg # of iterations = 11.4

     negative rho (up, down):  9.792E-03 0.000E+00

     total cpu time spent up to now is      531.0 secs

     total energy              =    -779.34231176 Ry
     Harris-Foulkes estimate   =    -820.16932967 Ry
     estimated scf accuracy    <      70.66075569 Ry

     iteration # 76     ecut=    80.00 Ry     beta= 0.40
     Davidson diagonalization with overlap
     ethr =  3.94E-03,  avg # of iterations =  3.0

     negative rho (up, down):  2.665E-01 0.000E+00

     total cpu time spent up to now is      539.7 secs

     total energy              =    -833.59032636 Ry
     Harris-Foulkes estimate   =    -811.38433024 Ry
     estimated scf accuracy    <      29.47467247 Ry

     iteration # 77     ecut=    80.00 Ry     beta= 0.40
     Davidson diagonalization with overlap
     c_bands:  1 eigenvalues not converged
     ethr =  3.94E-03,  avg # of iterations = 12.9

     negative rho (up, down):  4.163E-02 0.000E+00

     total cpu time spent up to now is      558.4 secs

     total energy              =    -788.95345885 Ry
     Harris-Foulkes estimate   =    -833.63923272 Ry
     estimated scf accuracy    <      54.43063539 Ry

     iteration # 78     ecut=    80.00 Ry     beta= 0.40
     Davidson diagonalization with overlap
     ethr =  3.94E-03,  avg # of iterations = 10.8

     negative rho (up, down):  2.191E-02 0.000E+00

     total cpu time spent up to now is      577.0 secs

     total energy              =    -786.78525374 Ry
     Harris-Foulkes estimate   =    -815.99603015 Ry
     estimated scf accuracy    <      42.92738979 Ry

     iteration # 79     ecut=    80.00 Ry     beta= 0.40
     Davidson diagonalization with overlap
     ethr =  3.94E-03,  avg # of iterations =  3.3

     negative rho (up, down):  1.209E-02 0.000E+00

     total cpu time spent up to now is      586.3 secs

     total energy              =    -800.35487414 Ry
     Harris-Foulkes estimate   =    -812.61207995 Ry
     estimated scf accuracy    <      31.10308897 Ry

     iteration # 80     ecut=    80.00 Ry     beta= 0.40
     Davidson diagonalization with overlap
     ethr =  3.94E-03,  avg # of iterations =  3.9

     negative rho (up, down):  2.932E-04 0.000E+00

     total cpu time spent up to now is      594.2 secs

     total energy              =    -800.05397047 Ry
     Harris-Foulkes estimate   =    -802.61036978 Ry
     estimated scf accuracy    <       2.89994097 Ry

     iteration # 81     ecut=    80.00 Ry     beta= 0.40
     Davidson diagonalization with overlap
     ethr =  3.94E-03,  avg # of iterations =  3.2

     negative rho (up, down):  6.174E-04 0.000E+00

     total cpu time spent up to now is      601.8 secs

     total energy              =    -794.36869624 Ry
     Harris-Foulkes estimate   =    -807.72160013 Ry
     estimated scf accuracy    <      32.98394131 Ry

     iteration # 82     ecut=    80.00 Ry     beta= 0.40
     Davidson diagonalization with overlap
     ethr =  3.94E-03,  avg # of iterations =  3.0

     negative rho (up, down):  5.614E-04 0.000E+00

     total cpu time spent up to now is      609.6 secs

     total energy              =    -803.03187367 Ry
     Harris-Foulkes estimate   =    -803.39260766 Ry
     estimated scf accuracy    <       3.79234939 Ry

     iteration # 83     ecut=    80.00 Ry     beta= 0.40
     Davidson diagonalization with overlap
     ethr =  3.94E-03,  avg # of iterations =  1.0

     negative rho (up, down):  5.833E-04 0.000E+00

     total cpu time spent up to now is      615.5 secs

     total energy              =    -802.53627025 Ry
     Harris-Foulkes estimate   =    -803.03440054 Ry
     estimated scf accuracy    <       3.39409840 Ry

     iteration # 84     ecut=    80.00 Ry     beta= 0.40
     Davidson diagonalization with overlap
     ethr =  3.94E-03,  avg # of iterations =  1.0

     negative rho (up, down):  3.356E-04 0.000E+00

     total cpu time spent up to now is      621.2 secs

     total energy              =    -804.11222794 Ry
     Harris-Foulkes estimate   =    -802.53816115 Ry
     estimated scf accuracy    <       2.83733437 Ry

     iteration # 85     ecut=    80.00 Ry     beta= 0.40
     Davidson diagonalization with overlap
     ethr =  3.94E-03,  avg # of iterations =  1.0

     negative rho (up, down):  4.449E-04 0.000E+00

     total cpu time spent up to now is      627.1 secs

     total energy              =    -802.42938472 Ry
     Harris-Foulkes estimate   =    -804.12323849 Ry
     estimated scf accuracy    <       4.67478668 Ry

     iteration # 86     ecut=    80.00 Ry     beta= 0.40
     Davidson diagonalization with overlap
     ethr =  3.94E-03,  avg # of iterations =  1.1

     negative rho (up, down):  3.662E-04 0.000E+00

     total cpu time spent up to now is      633.1 secs

     total energy              =    -802.73541308 Ry
     Harris-Foulkes estimate   =    -802.43837750 Ry
     estimated scf accuracy    <       2.77413472 Ry

     iteration # 87     ecut=    80.00 Ry     beta= 0.40
     Davidson diagonalization with overlap
     ethr =  3.94E-03,  avg # of iterations =  1.1

     negative rho (up, down):  3.716E-04 0.000E+00

     total cpu time spent up to now is      639.0 secs

     total energy              =    -802.01486141 Ry
     Harris-Foulkes estimate   =    -802.73638359 Ry
     estimated scf accuracy    <       3.10678761 Ry

     iteration # 88     ecut=    80.00 Ry     beta= 0.40
     Davidson diagonalization with overlap
     ethr =  3.94E-03,  avg # of iterations =  1.1

     negative rho (up, down):  6.651E-04 0.000E+00

     total cpu time spent up to now is      644.9 secs

     total energy              =    -800.65622394 Ry
     Harris-Foulkes estimate   =    -802.01959771 Ry
     estimated scf accuracy    <       2.27869556 Ry

     iteration # 89     ecut=    80.00 Ry     beta= 0.40
     Davidson diagonalization with overlap
     ethr =  3.94E-03,  avg # of iterations =  2.4

     negative rho (up, down):  1.090E-03 0.000E+00

     total cpu time spent up to now is      651.9 secs

     total energy              =    -806.53721507 Ry
     Harris-Foulkes estimate   =    -804.18443138 Ry
     estimated scf accuracy    <       9.11608255 Ry

     iteration # 90     ecut=    80.00 Ry     beta= 0.40
     Davidson diagonalization with overlap
     ethr =  3.94E-03,  avg # of iterations =  1.4

     negative rho (up, down):  4.567E-04 0.000E+00

     total cpu time spent up to now is      658.2 secs

     total energy              =    -797.75836011 Ry
     Harris-Foulkes estimate   =    -807.74952108 Ry
     estimated scf accuracy    <      36.11534639 Ry

     iteration # 91     ecut=    80.00 Ry     beta= 0.40
     Davidson diagonalization with overlap
     ethr =  3.94E-03,  avg # of iterations =  2.0

     negative rho (up, down):  3.715E-04 0.000E+00

     total cpu time spent up to now is      665.1 secs

     total energy              =    -803.39661861 Ry
     Harris-Foulkes estimate   =    -801.92152225 Ry
     estimated scf accuracy    <       2.12518893 Ry

     iteration # 92     ecut=    80.00 Ry     beta= 0.40
     Davidson diagonalization with overlap
     ethr =  3.94E-03,  avg # of iterations =  2.0

     negative rho (up, down):  4.612E-04 0.000E+00

     total cpu time spent up to now is      671.1 secs

     total energy              =    -802.46200142 Ry
     Harris-Foulkes estimate   =    -803.42005671 Ry
     estimated scf accuracy    <       3.87979963 Ry

     iteration # 93     ecut=    80.00 Ry     beta= 0.40
     Davidson diagonalization with overlap
     ethr =  3.94E-03,  avg # of iterations =  1.0

     negative rho (up, down):  4.671E-04 0.000E+00

     total cpu time spent up to now is      677.2 secs

     total energy              =    -802.61830707 Ry
     Harris-Foulkes estimate   =    -802.46850711 Ry
     estimated scf accuracy    <       2.80673005 Ry

     iteration # 94     ecut=    80.00 Ry     beta= 0.40
     Davidson diagonalization with overlap
     ethr =  3.94E-03,  avg # of iterations =  1.1

     negative rho (up, down):  5.217E-04 0.000E+00

     total cpu time spent up to now is      683.2 secs

     total energy              =    -802.16996588 Ry
     Harris-Foulkes estimate   =    -802.61893868 Ry
     estimated scf accuracy    <       2.96997592 Ry

     iteration # 95     ecut=    80.00 Ry     beta= 0.40
     Davidson diagonalization with overlap
     ethr =  3.94E-03,  avg # of iterations =  1.2

     negative rho (up, down):  4.727E-04 0.000E+00

     total cpu time spent up to now is      689.0 secs

     total energy              =    -802.50425886 Ry
     Harris-Foulkes estimate   =    -802.17155288 Ry
     estimated scf accuracy    <       2.45051518 Ry

     iteration # 96     ecut=    80.00 Ry     beta= 0.40
     Davidson diagonalization with overlap
     ethr =  3.94E-03,  avg # of iterations =  1.1

     negative rho (up, down):  5.312E-04 0.000E+00

     total cpu time spent up to now is      694.7 secs

     total energy              =    -802.38555505 Ry
     Harris-Foulkes estimate   =    -802.50507139 Ry
     estimated scf accuracy    <       2.83411286 Ry

     iteration # 97     ecut=    80.00 Ry     beta= 0.40
     Davidson diagonalization with overlap
     ethr =  3.94E-03,  avg # of iterations =  1.2

     negative rho (up, down):  9.113E-04 0.000E+00

     total cpu time spent up to now is      700.5 secs

     total energy              =    -800.67545683 Ry
     Harris-Foulkes estimate   =    -802.38568883 Ry
     estimated scf accuracy    <       2.69999607 Ry

     iteration # 98     ecut=    80.00 Ry     beta= 0.40
     Davidson diagonalization with overlap
     ethr =  3.94E-03,  avg # of iterations =  3.1

     negative rho (up, down):  4.747E-04 0.000E+00

     total cpu time spent up to now is      708.2 secs

     total energy              =    -800.56911269 Ry
     Harris-Foulkes estimate   =    -804.03350139 Ry
     estimated scf accuracy    <       9.18109270 Ry

     iteration # 99     ecut=    80.00 Ry     beta= 0.40
     Davidson diagonalization with overlap
     ethr =  3.94E-03,  avg # of iterations =  2.0

     negative rho (up, down):  7.477E-01 0.000E+00

     total cpu time spent up to now is      714.4 secs

     total energy              =    -809.26805579 Ry
     Harris-Foulkes estimate   =    -802.47021583 Ry
     estimated scf accuracy    <       2.77841199 Ry

     iteration #100     ecut=    80.00 Ry     beta= 0.40
     Davidson diagonalization with overlap
     ethr =  3.94E-03,  avg # of iterations =  4.0

     negative rho (up, down):  1.510E-02 0.000E+00

     total cpu time spent up to now is      723.6 secs

     total energy              =    -819.09493884 Ry
     Harris-Foulkes estimate   =    -868.97457608 Ry
     estimated scf accuracy    <     132.88342914 Ry

     iteration #101     ecut=    80.00 Ry     beta= 0.40
     Davidson diagonalization with overlap
     ethr =  3.94E-03,  avg # of iterations =  3.0

     negative rho (up, down):  6.327E-03 0.000E+00

     total cpu time spent up to now is      732.0 secs

     total energy              =    -813.32061943 Ry
     Harris-Foulkes estimate   =    -819.81328161 Ry
     estimated scf accuracy    <      70.33661247 Ry

     iteration #102     ecut=    80.00 Ry     beta= 0.40
     Davidson diagonalization with overlap
     ethr =  3.94E-03,  avg # of iterations =  1.0

     negative rho (up, down):  5.961E-03 0.000E+00

     total cpu time spent up to now is      737.8 secs

     total energy              =    -812.91053094 Ry
     Harris-Foulkes estimate   =    -813.34637701 Ry
     estimated scf accuracy    <      61.85811977 Ry

     iteration #103     ecut=    80.00 Ry     beta= 0.40
     Davidson diagonalization with overlap
     ethr =  3.94E-03,  avg # of iterations =  1.0

     negative rho (up, down):  2.062E-03 0.000E+00

     total cpu time spent up to now is      743.7 secs

     total energy              =    -808.25404826 Ry
     Harris-Foulkes estimate   =    -812.91257327 Ry
     estimated scf accuracy    <      61.28951192 Ry

     iteration #104     ecut=    80.00 Ry     beta= 0.40
     Davidson diagonalization with overlap
     ethr =  3.94E-03,  avg # of iterations =  1.0

     negative rho (up, down):  6.719E-04 0.000E+00

     total cpu time spent up to now is      749.5 secs

     total energy              =    -798.36768635 Ry
     Harris-Foulkes estimate   =    -808.83407818 Ry
     estimated scf accuracy    <      37.83478702 Ry

     iteration #105     ecut=    80.00 Ry     beta= 0.40
     Davidson diagonalization with overlap
     ethr =  3.94E-03,  avg # of iterations =  3.0

     negative rho (up, down):  7.227E-04 0.000E+00

     total cpu time spent up to now is      757.6 secs

     total energy              =    -801.55588930 Ry
     Harris-Foulkes estimate   =    -801.73454159 Ry
     estimated scf accuracy    <       1.83599621 Ry

     iteration #106     ecut=    80.00 Ry     beta= 0.40
     Davidson diagonalization with overlap
     ethr =  3.94E-03,  avg # of iterations =  1.0

     negative rho (up, down):  6.241E-04 0.000E+00

     total cpu time spent up to now is      763.4 secs

     total energy              =    -801.66080300 Ry
     Harris-Foulkes estimate   =    -802.01771005 Ry
     estimated scf accuracy    <       6.50395441 Ry

     iteration #107     ecut=    80.00 Ry     beta= 0.40
     Davidson diagonalization with overlap
     ethr =  3.94E-03,  avg # of iterations =  1.0

     negative rho (up, down):  7.062E-04 0.000E+00

     total cpu time spent up to now is      769.1 secs

     total energy              =    -801.38270821 Ry
     Harris-Foulkes estimate   =    -801.75811052 Ry
     estimated scf accuracy    <       2.48514593 Ry

     iteration #108     ecut=    80.00 Ry     beta= 0.40
     Davidson diagonalization with overlap
     ethr =  3.94E-03,  avg # of iterations =  1.0

     negative rho (up, down):  7.139E-04 0.000E+00

     total cpu time spent up to now is      774.9 secs

     total energy              =    -802.33463410 Ry
     Harris-Foulkes estimate   =    -802.27003096 Ry
     estimated scf accuracy    <       6.76703854 Ry

     iteration #109     ecut=    80.00 Ry     beta= 0.40
     Davidson diagonalization with overlap
     ethr =  3.94E-03,  avg # of iterations =  1.0

     negative rho (up, down):  7.196E-04 0.000E+00

     total cpu time spent up to now is      780.7 secs

     total energy              =    -802.39020763 Ry
     Harris-Foulkes estimate   =    -802.33486037 Ry
     estimated scf accuracy    <       6.85823452 Ry

     iteration #110     ecut=    80.00 Ry     beta= 0.40
     Davidson diagonalization with overlap
     ethr =  3.94E-03,  avg # of iterations =  1.0

     negative rho (up, down):  7.203E-04 0.000E+00

     total cpu time spent up to now is      786.4 secs

     total energy              =    -802.31574077 Ry
     Harris-Foulkes estimate   =    -802.39029641 Ry
     estimated scf accuracy    <       6.92815979 Ry

     iteration #111     ecut=    80.00 Ry     beta= 0.40
     Davidson diagonalization with overlap
     ethr =  3.94E-03,  avg # of iterations =  1.0

     negative rho (up, down):  7.350E-04 0.000E+00

     total cpu time spent up to now is      792.3 secs

     total energy              =    -802.28789727 Ry
     Harris-Foulkes estimate   =    -802.31578114 Ry
     estimated scf accuracy    <       6.84910375 Ry

     iteration #112     ecut=    80.00 Ry     beta= 0.40
     Davidson diagonalization with overlap
     ethr =  3.94E-03,  avg # of iterations =  1.0

     negative rho (up, down):  7.080E-04 0.000E+00

     total cpu time spent up to now is      798.3 secs

     total energy              =    -802.00419116 Ry
     Harris-Foulkes estimate   =    -802.28799994 Ry
     estimated scf accuracy    <       6.83200054 Ry

     iteration #113     ecut=    80.00 Ry     beta= 0.40
     Davidson diagonalization with overlap
     ethr =  3.94E-03,  avg # of iterations =  1.0

     negative rho (up, down):  7.383E-04 0.000E+00

     total cpu time spent up to now is      804.2 secs

     total energy              =    -802.71382711 Ry
     Harris-Foulkes estimate   =    -802.00465733 Ry
     estimated scf accuracy    <       6.49518516 Ry

     iteration #114     ecut=    80.00 Ry     beta= 0.40
     Davidson diagonalization with overlap
     ethr =  3.94E-03,  avg # of iterations =  1.0

     negative rho (up, down):  5.947E-04 0.000E+00

     total cpu time spent up to now is      810.0 secs

     total energy              =    -801.09497162 Ry
     Harris-Foulkes estimate   =    -802.71585803 Ry
     estimated scf accuracy    <       7.02182859 Ry

     iteration #115     ecut=    80.00 Ry     beta= 0.40
     Davidson diagonalization with overlap
     ethr =  3.94E-03,  avg # of iterations =  1.0

     negative rho (up, down):  7.219E-04 0.000E+00

     total cpu time spent up to now is      815.7 secs

     total energy              =    -802.07563484 Ry
     Harris-Foulkes estimate   =    -802.12892281 Ry
     estimated scf accuracy    <       2.49773515 Ry

     iteration #116     ecut=    80.00 Ry     beta= 0.40
     Davidson diagonalization with overlap
     ethr =  3.94E-03,  avg # of iterations =  1.0

     negative rho (up, down):  1.314E-03 0.000E+00

     total cpu time spent up to now is      821.7 secs

     total energy              =    -801.38555337 Ry
     Harris-Foulkes estimate   =    -802.07701395 Ry
     estimated scf accuracy    <       2.44457676 Ry

     iteration #117     ecut=    80.00 Ry     beta= 0.40
     Davidson diagonalization with overlap
     ethr =  3.94E-03,  avg # of iterations =  1.0

     negative rho (up, down):  1.373E-03 0.000E+00

     total cpu time spent up to now is      827.6 secs

     total energy              =    -802.30049547 Ry
     Harris-Foulkes estimate   =    -802.36816169 Ry
     estimated scf accuracy    <       6.68060470 Ry

     iteration #118     ecut=    80.00 Ry     beta= 0.40
     Davidson diagonalization with overlap
     ethr =  3.94E-03,  avg # of iterations =  1.0

     negative rho (up, down):  1.139E-03 0.000E+00

     total cpu time spent up to now is      833.5 secs

     total energy              =    -801.56261418 Ry
     Harris-Foulkes estimate   =    -802.30093590 Ry
     estimated scf accuracy    <       6.60677578 Ry

     iteration #119     ecut=    80.00 Ry     beta= 0.40
     Davidson diagonalization with overlap
     ethr =  3.94E-03,  avg # of iterations =  1.0

     negative rho (up, down):  1.033E-03 0.000E+00

     total cpu time spent up to now is      839.2 secs

     total energy              =    -801.79588300 Ry
     Harris-Foulkes estimate   =    -801.83143961 Ry
     estimated scf accuracy    <       2.11594407 Ry

     iteration #120     ecut=    80.00 Ry     beta= 0.40
     Davidson diagonalization with overlap
     ethr =  3.94E-03,  avg # of iterations =  1.0

     negative rho (up, down):  9.643E-04 0.000E+00

     total cpu time spent up to now is      845.0 secs

     total energy              =    -801.89815664 Ry
     Harris-Foulkes estimate   =    -801.79597845 Ry
     estimated scf accuracy    <       2.08164102 Ry

     iteration #121     ecut=    80.00 Ry     beta= 0.40
     Davidson diagonalization with overlap
     ethr =  3.94E-03,  avg # of iterations =  1.0

     negative rho (up, down):  1.127E-03 0.000E+00

     total cpu time spent up to now is      850.9 secs

     total energy              =    -801.76085787 Ry
     Harris-Foulkes estimate   =    -801.89822593 Ry
     estimated scf accuracy    <       2.20150592 Ry

     iteration #122     ecut=    80.00 Ry     beta= 0.40
     Davidson diagonalization with overlap
     ethr =  3.94E-03,  avg # of iterations =  1.0

     negative rho (up, down):  7.884E-04 0.000E+00

     total cpu time spent up to now is      856.8 secs

     total energy              =    -802.13360301 Ry
     Harris-Foulkes estimate   =    -801.75923241 Ry
     estimated scf accuracy    <       2.85328886 Ry

     iteration #123     ecut=    80.00 Ry     beta= 0.40
     Davidson diagonalization with overlap
     ethr =  3.94E-03,  avg # of iterations =  1.0

     negative rho (up, down):  7.847E-04 0.000E+00

     total cpu time spent up to now is      862.8 secs

     total energy              =    -802.01105013 Ry
     Harris-Foulkes estimate   =    -802.08041097 Ry
     estimated scf accuracy    <       2.42159249 Ry

     iteration #124     ecut=    80.00 Ry     beta= 0.40
     Davidson diagonalization with overlap
     ethr =  3.94E-03,  avg # of iterations =  1.0

     negative rho (up, down):  8.332E-04 0.000E+00

     total cpu time spent up to now is      868.6 secs

     total energy              =    -801.93646142 Ry
     Harris-Foulkes estimate   =    -802.01120102 Ry
     estimated scf accuracy    <       2.34098199 Ry

     iteration #125     ecut=    80.00 Ry     beta= 0.40
     Davidson diagonalization with overlap
     ethr =  3.94E-03,  avg # of iterations =  1.0

     negative rho (up, down):  7.867E-04 0.000E+00

     total cpu time spent up to now is      874.4 secs

     total energy              =    -801.93000963 Ry
     Harris-Foulkes estimate   =    -801.93650317 Ry
     estimated scf accuracy    <       2.25363968 Ry

     iteration #126     ecut=    80.00 Ry     beta= 0.40
     Davidson diagonalization with overlap
     ethr =  3.94E-03,  avg # of iterations =  1.0

     negative rho (up, down):  1.040E-03 0.000E+00

     total cpu time spent up to now is      880.1 secs

     total energy              =    -801.31668840 Ry
     Harris-Foulkes estimate   =    -801.93003800 Ry
     estimated scf accuracy    <       2.25253570 Ry

     iteration #127     ecut=    80.00 Ry     beta= 0.40
     Davidson diagonalization with overlap
     ethr =  3.94E-03,  avg # of iterations =  1.0

     negative rho (up, down):  9.715E-04 0.000E+00

     total cpu time spent up to now is      885.9 secs

     total energy              =    -802.33600829 Ry
     Harris-Foulkes estimate   =    -802.51292419 Ry
     estimated scf accuracy    <       6.84130350 Ry

     iteration #128     ecut=    80.00 Ry     beta= 0.40
     Davidson diagonalization with overlap
     ethr =  3.94E-03,  avg # of iterations =  1.0

     negative rho (up, down):  8.794E-04 0.000E+00

     total cpu time spent up to now is      891.8 secs

     total energy              =    -802.09415873 Ry
     Harris-Foulkes estimate   =    -802.33663451 Ry
     estimated scf accuracy    <       6.62025434 Ry

     iteration #129     ecut=    80.00 Ry     beta= 0.40
     Davidson diagonalization with overlap
     ethr =  3.94E-03,  avg # of iterations =  1.0

     negative rho (up, down):  1.021E-03 0.000E+00

     total cpu time spent up to now is      897.7 secs

     total energy              =    -802.98355135 Ry
     Harris-Foulkes estimate   =    -802.09442890 Ry
     estimated scf accuracy    <       6.32433007 Ry

     iteration #130     ecut=    80.00 Ry     beta= 0.40
     Davidson diagonalization with overlap
     ethr =  3.94E-03,  avg # of iterations =  1.0

     negative rho (up, down):  7.503E-04 0.000E+00

     total cpu time spent up to now is      903.4 secs

     total energy              =    -800.58987647 Ry
     Harris-Foulkes estimate   =    -802.98758068 Ry
     estimated scf accuracy    <       7.43242814 Ry

     iteration #131     ecut=    80.00 Ry     beta= 0.40
     Davidson diagonalization with overlap
     ethr =  3.94E-03,  avg # of iterations =  1.0

     negative rho (up, down):  7.673E-04 0.000E+00

     total cpu time spent up to now is      909.2 secs

     total energy              =    -802.47530397 Ry
     Harris-Foulkes estimate   =    -802.49824473 Ry
     estimated scf accuracy    <       2.90151410 Ry

     iteration #132     ecut=    80.00 Ry     beta= 0.40
     Davidson diagonalization with overlap
     ethr =  3.94E-03,  avg # of iterations =  1.0

     negative rho (up, down):  7.397E-04 0.000E+00

     total cpu time spent up to now is      915.2 secs

     total energy              =    -802.54615938 Ry
     Harris-Foulkes estimate   =    -802.47748159 Ry
     estimated scf accuracy    <       2.88045341 Ry

     iteration #133     ecut=    80.00 Ry     beta= 0.40
     Davidson diagonalization with overlap
     ethr =  3.94E-03,  avg # of iterations =  1.0

     negative rho (up, down):  7.737E-04 0.000E+00

     total cpu time spent up to now is      921.0 secs

     total energy              =    -801.86515913 Ry
     Harris-Foulkes estimate   =    -802.54704446 Ry
     estimated scf accuracy    <       2.97288888 Ry

     iteration #134     ecut=    80.00 Ry     beta= 0.40
     Davidson diagonalization with overlap
     ethr =  3.94E-03,  avg # of iterations =  1.0

     negative rho (up, down):  7.290E-04 0.000E+00

     total cpu time spent up to now is      926.9 secs

     total energy              =    -802.09009408 Ry
     Harris-Foulkes estimate   =    -801.86759098 Ry
     estimated scf accuracy    <       2.18806207 Ry

     iteration #135     ecut=    80.00 Ry     beta= 0.40
     Davidson diagonalization with overlap
     ethr =  3.94E-03,  avg # of iterations =  1.0

     negative rho (up, down):  7.258E-04 0.000E+00

     total cpu time spent up to now is      932.6 secs

     total energy              =    -802.21386376 Ry
     Harris-Foulkes estimate   =    -802.09040898 Ry
     estimated scf accuracy    <       2.44053644 Ry

     iteration #136     ecut=    80.00 Ry     beta= 0.40
     Davidson diagonalization with overlap
     ethr =  3.94E-03,  avg # of iterations =  1.0

     negative rho (up, down):  7.383E-04 0.000E+00

     total cpu time spent up to now is      938.5 secs

     total energy              =    -802.14109847 Ry
     Harris-Foulkes estimate   =    -802.21399338 Ry
     estimated scf accuracy    <       2.58371988 Ry

     iteration #137     ecut=    80.00 Ry     beta= 0.40
     Davidson diagonalization with overlap
     ethr =  3.94E-03,  avg # of iterations =  1.0

     negative rho (up, down):  7.322E-04 0.000E+00

     total cpu time spent up to now is      944.6 secs

     total energy              =    -802.27320186 Ry
     Harris-Foulkes estimate   =    -802.14112857 Ry
     estimated scf accuracy    <       2.50089170 Ry

     iteration #138     ecut=    80.00 Ry     beta= 0.40
     Davidson diagonalization with overlap
     ethr =  3.94E-03,  avg # of iterations =  1.0

     negative rho (up, down):  8.516E-04 0.000E+00

     total cpu time spent up to now is      950.4 secs

     total energy              =    -801.49875717 Ry
     Harris-Foulkes estimate   =    -802.27332753 Ry
     estimated scf accuracy    <       2.65805794 Ry

     iteration #139     ecut=    80.00 Ry     beta= 0.40
     Davidson diagonalization with overlap
     ethr =  3.94E-03,  avg # of iterations =  1.0

     negative rho (up, down):  7.556E-04 0.000E+00

     total cpu time spent up to now is      956.2 secs

     total energy              =    -801.25421139 Ry
     Harris-Foulkes estimate   =    -802.14373568 Ry
     estimated scf accuracy    <       6.34836909 Ry

     iteration #140     ecut=    80.00 Ry     beta= 0.40
     Davidson diagonalization with overlap
     ethr =  3.94E-03,  avg # of iterations =  1.0

     negative rho (up, down):  7.547E-04 0.000E+00

     total cpu time spent up to now is      962.3 secs

     total energy              =    -802.16156791 Ry
     Harris-Foulkes estimate   =    -802.03083726 Ry
     estimated scf accuracy    <       2.36643885 Ry

     iteration #141     ecut=    80.00 Ry     beta= 0.40
     Davidson diagonalization with overlap
     ethr =  3.94E-03,  avg # of iterations =  1.0

     negative rho (up, down):  7.929E-04 0.000E+00

     total cpu time spent up to now is      968.1 secs

     total energy              =    -801.92488051 Ry
     Harris-Foulkes estimate   =    -802.16197158 Ry
     estimated scf accuracy    <       2.52777060 Ry

     iteration #142     ecut=    80.00 Ry     beta= 0.40
     Davidson diagonalization with overlap
     ethr =  3.94E-03,  avg # of iterations =  1.0

     negative rho (up, down):  7.884E-04 0.000E+00

     total cpu time spent up to now is      973.8 secs

     total energy              =    -801.99297845 Ry
     Harris-Foulkes estimate   =    -801.92517313 Ry
     estimated scf accuracy    <       2.25385360 Ry

     iteration #143     ecut=    80.00 Ry     beta= 0.40
     Davidson diagonalization with overlap
     ethr =  3.94E-03,  avg # of iterations =  1.0

     negative rho (up, down):  7.878E-04 0.000E+00

     total cpu time spent up to now is      979.8 secs

     total energy              =    -801.97797813 Ry
     Harris-Foulkes estimate   =    -801.99300200 Ry
     estimated scf accuracy    <       2.33016437 Ry

     iteration #144     ecut=    80.00 Ry     beta= 0.40
     Davidson diagonalization with overlap
     ethr =  3.94E-03,  avg # of iterations =  1.0

     negative rho (up, down):  7.767E-04 0.000E+00

     total cpu time spent up to now is      985.7 secs

     total energy              =    -801.81086445 Ry
     Harris-Foulkes estimate   =    -801.97798237 Ry
     estimated scf accuracy    <       2.31236019 Ry

     iteration #145     ecut=    80.00 Ry     beta= 0.40
     Davidson diagonalization with overlap
     ethr =  3.94E-03,  avg # of iterations =  1.0

     negative rho (up, down):  7.151E-04 0.000E+00

     total cpu time spent up to now is      991.6 secs

     total energy              =    -801.69638305 Ry
     Harris-Foulkes estimate   =    -801.81109362 Ry
     estimated scf accuracy    <       2.11478219 Ry

     iteration #146     ecut=    80.00 Ry     beta= 0.40
     Davidson diagonalization with overlap
     ethr =  3.94E-03,  avg # of iterations =  1.0

     negative rho (up, down):  7.433E-04 0.000E+00

     total cpu time spent up to now is      997.4 secs

     total energy              =    -801.15802553 Ry
     Harris-Foulkes estimate   =    -801.79369429 Ry
     estimated scf accuracy    <       6.79887557 Ry

     iteration #147     ecut=    80.00 Ry     beta= 0.40
     Davidson diagonalization with overlap
     ethr =  3.94E-03,  avg # of iterations =  1.0

     negative rho (up, down):  7.061E-04 0.000E+00

     total cpu time spent up to now is     1003.2 secs

     total energy              =    -802.36659186 Ry
     Harris-Foulkes estimate   =    -802.06721419 Ry
     estimated scf accuracy    <       2.41088789 Ry

     iteration #148     ecut=    80.00 Ry     beta= 0.40
     Davidson diagonalization with overlap
     ethr =  3.94E-03,  avg # of iterations =  1.0

     negative rho (up, down):  7.023E-04 0.000E+00

     total cpu time spent up to now is     1009.2 secs

     total energy              =    -802.35129595 Ry
     Harris-Foulkes estimate   =    -802.36771135 Ry
     estimated scf accuracy    <       2.77130044 Ry

     iteration #149     ecut=    80.00 Ry     beta= 0.40
     Davidson diagonalization with overlap
     ethr =  3.94E-03,  avg # of iterations =  1.0

     negative rho (up, down):  7.172E-04 0.000E+00

     total cpu time spent up to now is     1015.2 secs

     total energy              =    -802.27570233 Ry
     Harris-Foulkes estimate   =    -802.35159322 Ry
     estimated scf accuracy    <       2.75230657 Ry

     iteration #150     ecut=    80.00 Ry     beta= 0.40
     Davidson diagonalization with overlap
     ethr =  3.94E-03,  avg # of iterations =  1.0

     negative rho (up, down):  7.170E-04 0.000E+00

     total cpu time spent up to now is     1021.0 secs

     total energy              =    -802.27497817 Ry
     Harris-Foulkes estimate   =    -802.27577054 Ry
     estimated scf accuracy    <       2.66752347 Ry

     iteration #151     ecut=    80.00 Ry     beta= 0.40
     Davidson diagonalization with overlap
     ethr =  3.94E-03,  avg # of iterations =  1.0

     negative rho (up, down):  7.475E-04 0.000E+00

     total cpu time spent up to now is     1026.7 secs

     total energy              =    -802.15046676 Ry
     Harris-Foulkes estimate   =    -802.27499878 Ry
     estimated scf accuracy    <       2.66726905 Ry

     iteration #152     ecut=    80.00 Ry     beta= 0.40
     Davidson diagonalization with overlap
     ethr =  3.94E-03,  avg # of iterations =  1.0

     negative rho (up, down):  7.513E-04 0.000E+00

     total cpu time spent up to now is     1032.5 secs

     total energy              =    -802.11772106 Ry
     Harris-Foulkes estimate   =    -802.15053967 Ry
     estimated scf accuracy    <       2.52204521 Ry

     iteration #153     ecut=    80.00 Ry     beta= 0.40
     Davidson diagonalization with overlap
     ethr =  3.94E-03,  avg # of iterations =  1.0

     negative rho (up, down):  7.233E-04 0.000E+00

     total cpu time spent up to now is     1038.5 secs

     total energy              =    -802.10489436 Ry
     Harris-Foulkes estimate   =    -802.11774333 Ry
     estimated scf accuracy    <       2.48266324 Ry

     iteration #154     ecut=    80.00 Ry     beta= 0.40
     Davidson diagonalization with overlap
     ethr =  3.94E-03,  avg # of iterations =  1.0

     negative rho (up, down):  6.864E-04 0.000E+00

     total cpu time spent up to now is     1044.3 secs

     total energy              =    -802.39841999 Ry
     Harris-Foulkes estimate   =    -802.10490697 Ry
     estimated scf accuracy    <       2.46775203 Ry

     iteration #155     ecut=    80.00 Ry     beta= 0.40
     Davidson diagonalization with overlap
     ethr =  3.94E-03,  avg # of iterations =  1.0

     negative rho (up, down):  5.288E-03 0.000E+00

     total cpu time spent up to now is     1050.1 secs

     total energy              =    -799.91235541 Ry
     Harris-Foulkes estimate   =    -802.39889494 Ry
     estimated scf accuracy    <       2.81265198 Ry

     iteration #156     ecut=    80.00 Ry     beta= 0.40
     Davidson diagonalization with overlap
     ethr =  3.94E-03,  avg # of iterations =  3.0

     negative rho (up, down):  6.098E-03 0.000E+00

     total cpu time spent up to now is     1058.0 secs

     total energy              =    -813.39881845 Ry
     Harris-Foulkes estimate   =    -813.15245161 Ry
     estimated scf accuracy    <      60.87596459 Ry

     iteration #157     ecut=    80.00 Ry     beta= 0.40
     Davidson diagonalization with overlap
     ethr =  3.94E-03,  avg # of iterations =  1.0

     negative rho (up, down):  2.929E-03 0.000E+00

     total cpu time spent up to now is     1063.8 secs

     total energy              =    -814.03371195 Ry
     Harris-Foulkes estimate   =    -813.39893937 Ry
     estimated scf accuracy    <      61.19484004 Ry

     iteration #158     ecut=    80.00 Ry     beta= 0.40
     Davidson diagonalization with overlap
     ethr =  3.94E-03,  avg # of iterations =  1.0

     negative rho (up, down):  4.583E-03 0.000E+00

     total cpu time spent up to now is     1069.7 secs

     total energy              =    -814.23224689 Ry
     Harris-Foulkes estimate   =    -814.03437484 Ry
     estimated scf accuracy    <      62.07815270 Ry

     iteration #159     ecut=    80.00 Ry     beta= 0.40
     Davidson diagonalization with overlap
     ethr =  3.94E-03,  avg # of iterations =  1.0

     negative rho (up, down):  5.668E-03 0.000E+00

     total cpu time spent up to now is     1075.4 secs

     total energy              =    -814.44637959 Ry
     Harris-Foulkes estimate   =    -814.23234840 Ry
     estimated scf accuracy    <      62.33320866 Ry

     iteration #160     ecut=    80.00 Ry     beta= 0.40
     Davidson diagonalization with overlap
     ethr =  3.94E-03,  avg # of iterations =  1.0

     negative rho (up, down):  3.743E-03 0.000E+00

     total cpu time spent up to now is     1081.2 secs

     total energy              =    -814.99885602 Ry
     Harris-Foulkes estimate   =    -814.44642840 Ry
     estimated scf accuracy    <      62.55624550 Ry

     iteration #161     ecut=    80.00 Ry     beta= 0.40
     Davidson diagonalization with overlap
     ethr =  3.94E-03,  avg # of iterations =  1.0

     negative rho (up, down):  5.367E-03 0.000E+00

     total cpu time spent up to now is     1087.2 secs

     total energy              =    -815.66370416 Ry
     Harris-Foulkes estimate   =    -814.99911537 Ry
     estimated scf accuracy    <      63.26839802 Ry

     iteration #162     ecut=    80.00 Ry     beta= 0.40
     Davidson diagonalization with overlap
     ethr =  3.94E-03,  avg # of iterations =  1.0

     negative rho (up, down):  1.419E-02 0.000E+00

     total cpu time spent up to now is     1093.0 secs

     total energy              =    -815.09730999 Ry
     Harris-Foulkes estimate   =    -815.66409152 Ry
     estimated scf accuracy    <      64.08870163 Ry

     iteration #163     ecut=    80.00 Ry     beta= 0.40
     Davidson diagonalization with overlap
     ethr =  3.94E-03,  avg # of iterations =  1.0

     negative rho (up, down):  5.206E-02 0.000E+00

     total cpu time spent up to now is     1098.6 secs

     total energy              =    -813.86337005 Ry
     Harris-Foulkes estimate   =    -815.09787617 Ry
     estimated scf accuracy    <      63.23886998 Ry

     iteration #164     ecut=    80.00 Ry     beta= 0.40
     Davidson diagonalization with overlap
     ethr =  3.94E-03,  avg # of iterations =  1.0

     negative rho (up, down):  1.401E-01 0.000E+00

     total cpu time spent up to now is     1104.5 secs

     total energy              =    -757.37635623 Ry
     Harris-Foulkes estimate   =    -813.86635736 Ry
     estimated scf accuracy    <      61.34914879 Ry

     iteration #165     ecut=    80.00 Ry     beta= 0.40
     Davidson diagonalization with overlap
     ethr =  3.94E-03,  avg # of iterations = 11.0

     negative rho (up, down):  1.295E-01 0.000E+00

     total cpu time spent up to now is     1123.9 secs

     total energy              =    -874.04931074 Ry
     Harris-Foulkes estimate   =    -874.95511419 Ry
     estimated scf accuracy    <     135.19911460 Ry

     iteration #166     ecut=    80.00 Ry     beta= 0.40
     Davidson diagonalization with overlap
     ethr =  3.94E-03,  avg # of iterations =  1.0

     negative rho (up, down):  1.238E-01 0.000E+00

     total cpu time spent up to now is     1129.7 secs

     total energy              =    -872.62006142 Ry
     Harris-Foulkes estimate   =    -874.05671084 Ry
     estimated scf accuracy    <     131.59280278 Ry

     iteration #167     ecut=    80.00 Ry     beta= 0.40
     Davidson diagonalization with overlap
     ethr =  3.94E-03,  avg # of iterations =  1.0

     negative rho (up, down):  1.049E-01 0.000E+00

     total cpu time spent up to now is     1135.5 secs

     total energy              =    -813.93635256 Ry
     Harris-Foulkes estimate   =    -872.62671405 Ry
     estimated scf accuracy    <     127.47951656 Ry

     iteration #168     ecut=    80.00 Ry     beta= 0.40
     Davidson diagonalization with overlap
     ethr =  3.94E-03,  avg # of iterations =  2.0

     negative rho (up, down):  1.218E-02 0.000E+00

     total cpu time spent up to now is     1143.1 secs

     total energy              =    -810.30758146 Ry
     Harris-Foulkes estimate   =    -818.33081131 Ry
     estimated scf accuracy    <      37.69512585 Ry

     iteration #169     ecut=    80.00 Ry     beta= 0.40
     Davidson diagonalization with overlap
     ethr =  3.94E-03,  avg # of iterations =  1.0

     negative rho (up, down):  3.054E-03 0.000E+00

     total cpu time spent up to now is     1148.8 secs

     total energy              =    -798.22774721 Ry
     Harris-Foulkes estimate   =    -810.31632345 Ry
     estimated scf accuracy    <      28.64343523 Ry

     iteration #170     ecut=    80.00 Ry     beta= 0.40
     Davidson diagonalization with overlap
     c_bands:  1 eigenvalues not converged
     ethr =  3.94E-03,  avg # of iterations = 13.9

     negative rho (up, down):  6.572E-04 0.000E+00

     total cpu time spent up to now is     1166.2 secs

     total energy              =    -801.79037584 Ry
     Harris-Foulkes estimate   =    -801.89963992 Ry
     estimated scf accuracy    <       1.58394957 Ry

     iteration #171     ecut=    80.00 Ry     beta= 0.40
     Davidson diagonalization with overlap
     ethr =  3.94E-03,  avg # of iterations =  2.9

     negative rho (up, down):  1.014E-03 0.000E+00

     total cpu time spent up to now is     1172.8 secs

     total energy              =    -801.79112595 Ry
     Harris-Foulkes estimate   =    -802.02027591 Ry
     estimated scf accuracy    <       2.18804955 Ry

     iteration #172     ecut=    80.00 Ry     beta= 0.40
     Davidson diagonalization with overlap
     ethr =  3.94E-03,  avg # of iterations =  1.4

     negative rho (up, down):  6.468E-04 0.000E+00

     total cpu time spent up to now is     1179.0 secs

     total energy              =    -800.82825945 Ry
     Harris-Foulkes estimate   =    -801.95724773 Ry
     estimated scf accuracy    <       6.56904872 Ry

     iteration #173     ecut=    80.00 Ry     beta= 0.40
     Davidson diagonalization with overlap
     ethr =  3.94E-03,  avg # of iterations =  1.0

     negative rho (up, down):  1.311E-03 0.000E+00

     total cpu time spent up to now is     1184.8 secs

     total energy              =    -806.24395440 Ry
     Harris-Foulkes estimate   =    -802.56768513 Ry
     estimated scf accuracy    <       2.80147881 Ry

     iteration #174     ecut=    80.00 Ry     beta= 0.40
     Davidson diagonalization with overlap
     ethr =  3.94E-03,  avg # of iterations =  3.0

     negative rho (up, down):  8.012E-04 0.000E+00

     total cpu time spent up to now is     1192.8 secs

     total energy              =    -801.69060407 Ry
     Harris-Foulkes estimate   =    -808.03711257 Ry
     estimated scf accuracy    <      26.44431408 Ry

     iteration #175     ecut=    80.00 Ry     beta= 0.40
     Davidson diagonalization with overlap
     ethr =  3.94E-03,  avg # of iterations =  3.3

     negative rho (up, down):  3.684E-03 0.000E+00

     total cpu time spent up to now is     1200.1 secs

     total energy              =    -803.99841673 Ry
     Harris-Foulkes estimate   =    -803.17035616 Ry
     estimated scf accuracy    <       3.62465981 Ry

     iteration #176     ecut=    80.00 Ry     beta= 0.40
     Davidson diagonalization with overlap
     ethr =  3.94E-03,  avg # of iterations =  1.0

     negative rho (up, down):  6.345E-04 0.000E+00

     total cpu time spent up to now is     1206.1 secs

     total energy              =    -802.27881003 Ry
     Harris-Foulkes estimate   =    -804.00400232 Ry
     estimated scf accuracy    <       4.61847077 Ry

[...]
     Davidson diagonalization with overlap
     ethr =  3.94E-03,  avg # of iterations =  1.2

     negative rho (up, down):  3.732E-03 0.000E+00

     total cpu time spent up to now is     2393.0 secs

     total energy              =    -810.96089387 Ry
     Harris-Foulkes estimate   =    -810.06248293 Ry
     estimated scf accuracy    <      56.31195527 Ry

     iteration #362     ecut=    80.00 Ry     beta= 0.40
     Davidson diagonalization with overlap
     ethr =  3.94E-03,  avg # of iterations =  1.1

     negative rho (up, down):  1.495E-03 0.000E+00

     total cpu time spent up to now is     2398.7 secs

     total energy              =    -775.67792891 Ry
     Harris-Foulkes estimate   =    -810.96987104 Ry
     estimated scf accuracy    <      57.99588059 Ry

     iteration #363     ecut=    80.00 Ry     beta= 0.40
     Davidson diagonalization with overlap
     ethr =  3.94E-03,  avg # of iterations = 12.8

     negative rho (up, down):  6.657E-04 0.000E+00

     total cpu time spent up to now is     2417.3 secs

     total energy              =    -798.26094129 Ry
     Harris-Foulkes estimate   =    -817.78915030 Ry
     estimated scf accuracy    <      38.54147833 Ry

     iteration #364     ecut=    80.00 Ry     beta= 0.40
     Davidson diagonalization with overlap
     ethr =  3.94E-03,  avg # of iterations =  4.0

     negative rho (up, down):  5.838E-04 0.000E+00

     total cpu time spent up to now is     2427.2 secs

     total energy              =    -801.28204718 Ry
     Harris-Foulkes estimate   =    -801.84228398 Ry
     estimated scf accuracy    <       2.23211625 Ry

     iteration #365     ecut=    80.00 Ry     beta= 0.40
     Davidson diagonalization with overlap
     ethr =  3.94E-03,  avg # of iterations =  1.0

     negative rho (up, down):  6.405E-04 0.000E+00

     total cpu time spent up to now is     2432.9 secs

     total energy              =    -801.77789851 Ry
     Harris-Foulkes estimate   =    -801.28870821 Ry
     estimated scf accuracy    <       1.59405162 Ry

     iteration #366     ecut=    80.00 Ry     beta= 0.40
     Davidson diagonalization with overlap
     ethr =  3.94E-03,  avg # of iterations =  1.0

     negative rho (up, down):  6.979E-04 0.000E+00

     total cpu time spent up to now is     2438.7 secs

     total energy              =    -801.69027673 Ry
     Harris-Foulkes estimate   =    -801.78244564 Ry
     estimated scf accuracy    <       2.12341097 Ry

     iteration #367     ecut=    80.00 Ry     beta= 0.40
     Davidson diagonalization with overlap
     ethr =  3.94E-03,  avg # of iterations =  1.0

     negative rho (up, down):  9.122E-04 0.000E+00

     total cpu time spent up to now is     2444.6 secs

     total energy              =    -801.15964240 Ry
     Harris-Foulkes estimate   =    -801.69116447 Ry
     estimated scf accuracy    <       1.99411188 Ry

     iteration #368     ecut=    80.00 Ry     beta= 0.40
     Davidson diagonalization with overlap
     ethr =  3.94E-03,  avg # of iterations =  1.8

     negative rho (up, down):  9.955E-04 0.000E+00

     total cpu time spent up to now is     2451.1 secs

     total energy              =    -801.00493385 Ry
     Harris-Foulkes estimate   =    -801.36696772 Ry
     estimated scf accuracy    <       0.45503227 Ry

     iteration #369     ecut=    80.00 Ry     beta= 0.40
     Davidson diagonalization with overlap
     ethr =  3.94E-03,  avg # of iterations =  3.9

     negative rho (up, down):  8.604E-04 0.000E+00

     total cpu time spent up to now is     2458.5 secs

     total energy              =    -802.52098855 Ry
     Harris-Foulkes estimate   =    -803.02564703 Ry
     estimated scf accuracy    <       2.07779107 Ry

     iteration #370     ecut=    80.00 Ry     beta= 0.40
     Davidson diagonalization with overlap
     ethr =  3.94E-03,  avg # of iterations =  3.5

     negative rho (up, down):  7.278E-04 0.000E+00

     total cpu time spent up to now is     2465.5 secs

     total energy              =    -802.18312713 Ry
     Harris-Foulkes estimate   =    -803.83087857 Ry
     estimated scf accuracy    <       7.62631618 Ry

     iteration #371     ecut=    80.00 Ry     beta= 0.40
     Davidson diagonalization with overlap
     ethr =  3.94E-03,  avg # of iterations =  2.2

     negative rho (up, down):  7.258E-04 0.000E+00

     total cpu time spent up to now is     2472.0 secs

     total energy              =    -802.09826665 Ry
     Harris-Foulkes estimate   =    -802.24037094 Ry
     estimated scf accuracy    <       6.52726286 Ry

     iteration #372     ecut=    80.00 Ry     beta= 0.40
     Davidson diagonalization with overlap
     ethr =  3.94E-03,  avg # of iterations =  1.6

     negative rho (up, down):  7.010E-04 0.000E+00

     total cpu time spent up to now is     2478.3 secs

     total energy              =    -801.33401333 Ry
     Harris-Foulkes estimate   =    -802.10212597 Ry
     estimated scf accuracy    <       6.34623492 Ry

     iteration #373     ecut=    80.00 Ry     beta= 0.40
     Davidson diagonalization with overlap
     ethr =  3.94E-03,  avg # of iterations =  1.3

     negative rho (up, down):  7.410E-04 0.000E+00

     total cpu time spent up to now is     2484.2 secs

     total energy              =    -801.63394552 Ry
     Harris-Foulkes estimate   =    -801.96836821 Ry
     estimated scf accuracy    <       2.28962533 Ry

     iteration #374     ecut=    80.00 Ry     beta= 0.40
     Davidson diagonalization with overlap
     ethr =  3.94E-03,  avg # of iterations =  1.3

     negative rho (up, down):  7.765E-04 0.000E+00

     total cpu time spent up to now is     2490.1 secs

     total energy              =    -802.03685520 Ry
     Harris-Foulkes estimate   =    -801.89387351 Ry
     estimated scf accuracy    <       6.04317117 Ry

     iteration #375     ecut=    80.00 Ry     beta= 0.40
     Davidson diagonalization with overlap
     ethr =  3.94E-03,  avg # of iterations =  1.2

     negative rho (up, down):  8.178E-04 0.000E+00

     total cpu time spent up to now is     2495.9 secs

     total energy              =    -801.34540323 Ry
     Harris-Foulkes estimate   =    -802.03788234 Ry
     estimated scf accuracy    <       6.21919992 Ry

     iteration #376     ecut=    80.00 Ry     beta= 0.40
     Davidson diagonalization with overlap
     ethr =  3.94E-03,  avg # of iterations =  1.1

     negative rho (up, down):  8.346E-04 0.000E+00

     total cpu time spent up to now is     2501.7 secs

     total energy              =    -801.69461160 Ry
     Harris-Foulkes estimate   =    -801.96521477 Ry
     estimated scf accuracy    <       2.29747463 Ry

     iteration #377     ecut=    80.00 Ry     beta= 0.40
     Davidson diagonalization with overlap
     ethr =  3.94E-03,  avg # of iterations =  1.3

     negative rho (up, down):  7.945E-04 0.000E+00

     total cpu time spent up to now is     2507.7 secs

     total energy              =    -801.40667219 Ry
     Harris-Foulkes estimate   =    -801.78825571 Ry
     estimated scf accuracy    <       7.15576978 Ry

     iteration #378     ecut=    80.00 Ry     beta= 0.40
     Davidson diagonalization with overlap
     ethr =  3.94E-03,  avg # of iterations =  1.2

     negative rho (up, down):  8.137E-04 0.000E+00

     total cpu time spent up to now is     2513.7 secs

     total energy              =    -801.21680254 Ry
     Harris-Foulkes estimate   =    -801.90419269 Ry
     estimated scf accuracy    <       2.22431761 Ry

     iteration #379     ecut=    80.00 Ry     beta= 0.40
     Davidson diagonalization with overlap
     ethr =  3.94E-03,  avg # of iterations =  1.8

     negative rho (up, down):  8.673E-04 0.000E+00

     total cpu time spent up to now is     2519.9 secs

     total energy              =    -802.73814814 Ry
     Harris-Foulkes estimate   =    -802.72581639 Ry
     estimated scf accuracy    <       7.06642749 Ry

     iteration #380     ecut=    80.00 Ry     beta= 0.40
     Davidson diagonalization with overlap
     ethr =  3.94E-03,  avg # of iterations =  1.3

     negative rho (up, down):  7.963E-04 0.000E+00

     total cpu time spent up to now is     2525.8 secs

     total energy              =    -802.41826970 Ry
     Harris-Foulkes estimate   =    -802.73966369 Ry
     estimated scf accuracy    <       7.07408549 Ry

     iteration #381     ecut=    80.00 Ry     beta= 0.40
     Davidson diagonalization with overlap
     ethr =  3.94E-03,  avg # of iterations =  1.1

     negative rho (up, down):  7.987E-04 0.000E+00

     total cpu time spent up to now is     2531.5 secs

     total energy              =    -802.33523747 Ry
     Harris-Foulkes estimate   =    -802.41907138 Ry
     estimated scf accuracy    <       6.69535924 Ry

     iteration #382     ecut=    80.00 Ry     beta= 0.40
     Davidson diagonalization with overlap
     ethr =  3.94E-03,  avg # of iterations =  1.1

     negative rho (up, down):  7.944E-04 0.000E+00

     total cpu time spent up to now is     2537.3 secs

     total energy              =    -802.08843349 Ry
     Harris-Foulkes estimate   =    -802.33554142 Ry
     estimated scf accuracy    <       6.59703443 Ry

     iteration #383     ecut=    80.00 Ry     beta= 0.40
     Davidson diagonalization with overlap
     ethr =  3.94E-03,  avg # of iterations =  1.2

     negative rho (up, down):  7.022E-04 0.000E+00

     total cpu time spent up to now is     2543.2 secs

     total energy              =    -801.32919449 Ry
     Harris-Foulkes estimate   =    -802.08914035 Ry
     estimated scf accuracy    <       6.29163887 Ry

     iteration #384     ecut=    80.00 Ry     beta= 0.40
     Davidson diagonalization with overlap
     ethr =  3.94E-03,  avg # of iterations =  1.1

     negative rho (up, down):  7.081E-04 0.000E+00

     total cpu time spent up to now is     2549.0 secs

     total energy              =    -801.80854634 Ry
     Harris-Foulkes estimate   =    -801.97907714 Ry
     estimated scf accuracy    <       2.30485248 Ry

     iteration #385     ecut=    80.00 Ry     beta= 0.40
     Davidson diagonalization with overlap
     ethr =  3.94E-03,  avg # of iterations =  1.3

     negative rho (up, down):  7.061E-04 0.000E+00

     total cpu time spent up to now is     2555.0 secs

     total energy              =    -801.92945635 Ry
     Harris-Foulkes estimate   =    -801.80906848 Ry
     estimated scf accuracy    <       2.10393250 Ry

     iteration #386     ecut=    80.00 Ry     beta= 0.40
     Davidson diagonalization with overlap
     ethr =  3.94E-03,  avg # of iterations =  1.2

     negative rho (up, down):  6.866E-04 0.000E+00

     total cpu time spent up to now is     2561.0 secs

     total energy              =    -802.14383397 Ry
     Harris-Foulkes estimate   =    -801.92964603 Ry
     estimated scf accuracy    <       2.24946347 Ry

     iteration #387     ecut=    80.00 Ry     beta= 0.40
     Davidson diagonalization with overlap
     ethr =  3.94E-03,  avg # of iterations =  1.0

     negative rho (up, down):  6.832E-04 0.000E+00

     total cpu time spent up to now is     2566.7 secs

     total energy              =    -802.16381998 Ry
     Harris-Foulkes estimate   =    -802.14431991 Ry
     estimated scf accuracy    <       2.50622266 Ry

     iteration #388     ecut=    80.00 Ry     beta= 0.40
     Davidson diagonalization with overlap
     ethr =  3.94E-03,  avg # of iterations =  1.1

     negative rho (up, down):  6.856E-04 0.000E+00

     total cpu time spent up to now is     2572.7 secs

     total energy              =    -802.17458262 Ry
     Harris-Foulkes estimate   =    -802.16395930 Ry
     estimated scf accuracy    <       2.52907461 Ry

     iteration #389     ecut=    80.00 Ry     beta= 0.40
     Davidson diagonalization with overlap
     ethr =  3.94E-03,  avg # of iterations =  1.1

     negative rho (up, down):  7.116E-04 0.000E+00

     total cpu time spent up to now is     2578.7 secs

     total energy              =    -801.93527474 Ry
     Harris-Foulkes estimate   =    -802.17465632 Ry
     estimated scf accuracy    <       2.54447491 Ry

     iteration #390     ecut=    80.00 Ry     beta= 0.40
     Davidson diagonalization with overlap
     ethr =  3.94E-03,  avg # of iterations =  1.0

     negative rho (up, down):  7.100E-04 0.000E+00

     total cpu time spent up to now is     2584.4 secs

     total energy              =    -801.97649256 Ry
     Harris-Foulkes estimate   =    -801.93556339 Ry
     estimated scf accuracy    <       2.26694456 Ry

     iteration #391     ecut=    80.00 Ry     beta= 0.40
     Davidson diagonalization with overlap
     ethr =  3.94E-03,  avg # of iterations =  1.1

     negative rho (up, down):  7.127E-04 0.000E+00

     total cpu time spent up to now is     2590.3 secs

     total energy              =    -801.92043509 Ry
     Harris-Foulkes estimate   =    -801.97652293 Ry
     estimated scf accuracy    <       2.31237307 Ry

     iteration #392     ecut=    80.00 Ry     beta= 0.40
     Davidson diagonalization with overlap
     ethr =  3.94E-03,  avg # of iterations =  1.2

     negative rho (up, down):  2.314E-03 0.000E+00

     total cpu time spent up to now is     2596.4 secs

     total energy              =    -799.94120237 Ry
     Harris-Foulkes estimate   =    -801.92048334 Ry
     estimated scf accuracy    <       2.24504658 Ry

     iteration #393     ecut=    80.00 Ry     beta= 0.40
     Davidson diagonalization with overlap
     ethr =  3.94E-03,  avg # of iterations =  3.0

     negative rho (up, down):  3.841E-03 0.000E+00

     total cpu time spent up to now is     2604.0 secs

     total energy              =    -816.55474685 Ry
     Harris-Foulkes estimate   =    -813.48231203 Ry
     estimated scf accuracy    <      61.43576523 Ry

     iteration #394     ecut=    80.00 Ry     beta= 0.40
     Davidson diagonalization with overlap
     ethr =  3.94E-03,  avg # of iterations =  1.0

     negative rho (up, down):  5.556E-02 0.000E+00

     total cpu time spent up to now is     2609.7 secs

     total energy              =    -813.14250550 Ry
     Harris-Foulkes estimate   =    -816.56109096 Ry
     estimated scf accuracy    <      65.66909663 Ry

     iteration #395     ecut=    80.00 Ry     beta= 0.40
     Davidson diagonalization with overlap
     ethr =  3.94E-03,  avg # of iterations =  1.0

     negative rho (up, down):  2.401E-02 0.000E+00

     total cpu time spent up to now is     2615.8 secs

     total energy              =    -807.18177063 Ry
     Harris-Foulkes estimate   =    -813.15475722 Ry
     estimated scf accuracy    <      61.12010151 Ry

     iteration #396     ecut=    80.00 Ry     beta= 0.40
     Davidson diagonalization with overlap
     ethr =  3.94E-03,  avg # of iterations =  1.0

     negative rho (up, down):  7.080E-04 0.000E+00

     total cpu time spent up to now is     2621.5 secs

     total energy              =    -802.10015625 Ry
     Harris-Foulkes estimate   =    -807.59002082 Ry
     estimated scf accuracy    <      35.75605290 Ry

     iteration #397     ecut=    80.00 Ry     beta= 0.40
     Davidson diagonalization with overlap
     ethr =  3.94E-03,  avg # of iterations =  2.1

     negative rho (up, down):  7.807E-04 0.000E+00

     total cpu time spent up to now is     2628.3 secs

     total energy              =    -801.39071057 Ry
     Harris-Foulkes estimate   =    -803.48880584 Ry
     estimated scf accuracy    <       8.23089005 Ry

     iteration #398     ecut=    80.00 Ry     beta= 0.40
     Davidson diagonalization with overlap
     ethr =  3.94E-03,  avg # of iterations =  1.0

     negative rho (up, down):  7.943E-04 0.000E+00

     total cpu time spent up to now is     2634.1 secs

     total energy              =    -801.80186161 Ry
     Harris-Foulkes estimate   =    -801.92256007 Ry
     estimated scf accuracy    <       2.20819824 Ry

     iteration #399     ecut=    80.00 Ry     beta= 0.40
     Davidson diagonalization with overlap
     ethr =  3.94E-03,  avg # of iterations =  1.0

     negative rho (up, down):  7.660E-04 0.000E+00

     total cpu time spent up to now is     2639.9 secs

     total energy              =    -802.07919719 Ry
     Harris-Foulkes estimate   =    -801.80468069 Ry
     estimated scf accuracy    <       2.07842999 Ry

     iteration #400     ecut=    80.00 Ry     beta= 0.40
     Davidson diagonalization with overlap
     ethr =  3.94E-03,  avg # of iterations =  1.0

     negative rho (up, down):  7.464E-04 0.000E+00

     total cpu time spent up to now is     2645.8 secs

     total energy              =    -801.85404224 Ry
     Harris-Foulkes estimate   =    -802.08225378 Ry
     estimated scf accuracy    <       2.41989526 Ry

     End of self-consistent calculation

     convergence NOT achieved after 400 iterations: stopping

     init_run     :      2.68s CPU      4.53s WALL (       1 calls)
     electrons    :   1646.54s CPU   2638.40s WALL (       1 calls)

     Called by init_run:
     wfcinit      :      2.02s CPU      3.34s WALL (       1 calls)
     potinit      :      0.12s CPU      0.31s WALL (       1 calls)
     hinit0       :      0.45s CPU      0.73s WALL (       1 calls)

     Called by electrons:
     c_bands      :   1302.16s CPU   2072.30s WALL (     400 calls)
     sum_band     :    286.80s CPU    453.42s WALL (     400 calls)
     v_of_rho     :      7.86s CPU     13.68s WALL (     401 calls)
     newd         :     22.46s CPU     30.47s WALL (     401 calls)
     PAW_pot      :     23.80s CPU     62.53s WALL (     401 calls)
     mix_rho      :      2.84s CPU      4.47s WALL (     400 calls)

     Called by c_bands:
     init_us_2    :     41.72s CPU     53.13s WALL (   88110 calls)
     cegterg      :   1215.52s CPU   1942.25s WALL (   44000 calls)

     Called by sum_band:
     sum_band:bec :      0.74s CPU      1.00s WALL (   44000 calls)
     addusdens    :     18.56s CPU     21.58s WALL (     400 calls)

     Called by *egterg:
     h_psi        :    981.74s CPU   1585.03s WALL (  120077 calls)
     s_psi        :     44.17s CPU     54.71s WALL (  120077 calls)
     g_psi        :      1.87s CPU      2.36s WALL (   75967 calls)
     cdiaghg      :     16.12s CPU     21.92s WALL (  119967 calls)

     Called by h_psi:
     h_psi:pot    :    977.41s CPU   1579.53s WALL (  120077 calls)
     h_psi:calbec :     94.83s CPU    169.61s WALL (  120077 calls)
     vloc_psi     :    835.60s CPU   1347.81s WALL (  120077 calls)
     add_vuspsi   :     46.44s CPU     61.49s WALL (  120077 calls)

     General routines
     calbec       :    135.75s CPU    239.29s WALL (  164077 calls)
     fft          :      4.76s CPU     10.47s WALL (    4413 calls)
     ffts         :      0.27s CPU      0.41s WALL (     400 calls)
     fftw         :    939.99s CPU   1544.31s WALL ( 2211712 calls)
     davcio       :      0.00s CPU      0.01s WALL (     128 calls)

     Parallel routines
     fft_scatt_xy :     66.34s CPU     87.81s WALL ( 2216525 calls)
     fft_scatt_yz :    478.84s CPU    944.27s WALL ( 2216525 calls)

     PWSCF        : 27m31.29s CPU    44m 5.82s WALL


   This run was terminated on:  23:36:54  23Oct2018            

=------------------------------------------------------------------------------=
   JOB DONE.
=------------------------------------------------------------------------------=
-------------------------------------------------------
Primary job  terminated normally, but 1 process returned
a non-zero exit code.. Per user-direction, the job has been aborted.
-------------------------------------------------------
--------------------------------------------------------------------------
mpirun.openmpi detected that one or more processes exited with non-zero status, thus causing
the job to be terminated. The first process to do so was:

  Process name: [[28092,1],7]
  Exit code:    2
--------------------------------------------------------------------------
