
     Program PWSCF v.6.3MaX starts on 23Oct2018 at 20:30:30 

     This program is part of the open-source Quantum ESPRESSO suite
     for quantum simulation of materials; please cite
         "P. Giannozzi et al., J. Phys.:Condens. Matter 21 395502 (2009);
         "P. Giannozzi et al., J. Phys.:Condens. Matter 29 465901 (2017);
          URL http://www.quantum-espresso.org", 
     in publications or presentations arising from this work. More details at
     http://www.quantum-espresso.org/quote

     Parallel version (MPI), running on     8 processors

     MPI processes distributed on     1 nodes
     R & G space division:  proc/nbgrp/npool/nimage =       8
     Waiting for input...
     Reading input from standard input
Warning: card &CELL ignored
Warning: card                CELL_DYNAMICS = 'BFGS' , ignored
Warning: card / ignored

     Current dimensions of program PWSCF are:
     Max number of different atomic species (ntypx) = 10
     Max number of k-points (npk) =  40000
     Max angular momentum in pseudopotentials (lmaxx) =  3
     Message from routine iosys:
     minimal I/O required, wf_collect reset to FALSE
               file N.pbe-n-kjpaw_psl.1.0.0.UPF: wavefunction(s)  2S renormalized
               file Na.pbe-spnl-kjpaw_psl.1.0.0.UPF: wavefunction(s)  2P renormalized

     Subspace diagonalization in iterative solution of the eigenvalue problem:
     a serial algorithm will be used


     Parallelization info
     --------------------
     sticks:   dense  smooth     PW     G-vecs:    dense   smooth      PW
     Min         198     198     59                 5206     5206     841
     Max         199     199     60                 5208     5208     842
     Sum        1585    1585    475                41655    41655    6735



     bravais-lattice index     =            2
     lattice parameter (alat)  =      12.0000  a.u.
     unit-cell volume          =     432.0000 (a.u.)^3
     number of atoms/cell      =            3
     number of atomic types    =            3
     number of electrons       =         9.00
     number of Kohn-Sham states=            9
     kinetic-energy cutoff     =      80.0000  Ry
     charge density cutoff     =     320.0000  Ry
     convergence threshold     =      1.0E-09
     mixing beta               =       0.4000
     number of iterations used =            8  plain     mixing
     Exchange-correlation      = SLA PW PBX PBC ( 1  4  3  4 0 0)

     celldm(1)=  12.000000  celldm(2)=   0.000000  celldm(3)=   0.000000
     celldm(4)=   0.000000  celldm(5)=   0.000000  celldm(6)=   0.000000

     crystal axes: (cart. coord. in units of alat)
               a(1) = (  -0.500000   0.000000   0.500000 )  
               a(2) = (   0.000000   0.500000   0.500000 )  
               a(3) = (  -0.500000   0.500000   0.000000 )  

     reciprocal axes: (cart. coord. in units 2 pi/alat)
               b(1) = ( -1.000000 -1.000000  1.000000 )  
               b(2) = (  1.000000  1.000000  1.000000 )  
               b(3) = ( -1.000000  1.000000 -1.000000 )  


     PseudoPot. # 1 for N  read from file:
     ./ps/N.pbe-n-kjpaw_psl.1.0.0.UPF
     MD5 check sum: 200139db3989ad6e773ddd42f12fc3a8
     Pseudo is Projector augmented-wave + core cor, Zval =  5.0
     Generated using "atomic" code by A. Dal Corso v.6.3
     Shape of augmentation charge: PSQ
     Using radial grid of 1085 points,  4 beta functions with: 
                l(1) =   0
                l(2) =   0
                l(3) =   1
                l(4) =   1
     Q(r) pseudized with 0 coefficients 


     PseudoPot. # 2 for Na read from file:
     ./ps/Na.pbe-spnl-kjpaw_psl.1.0.0.UPF
     MD5 check sum: 09e782c158f17eb2240230c4112357ee
     Pseudo is Projector augmented-wave + core cor, Zval =  9.0
     Generated using "atomic" code by A. Dal Corso v.6.3
     Shape of augmentation charge: PSQ
     Using radial grid of 1121 points,  4 beta functions with: 
                l(1) =   0
                l(2) =   0
                l(3) =   1
                l(4) =   1
     Q(r) pseudized with 0 coefficients 


     PseudoPot. # 3 for Cs read from file:
     ./ps/Cs.pbe-spnl-kjpaw_psl.1.0.0.UPF
     MD5 check sum: f98336d4a4407e24c1ab1e3bc36275e8
     Pseudo is Projector augmented-wave + core cor, Zval = -5.0
     Generated using "atomic" code by A. Dal Corso v.6.2.2
     Shape of augmentation charge: PSQ
     Using radial grid of 1251 points,  6 beta functions with: 
                l(1) =   0
                l(2) =   0
                l(3) =   1
                l(4) =   1
                l(5) =   2
                l(6) =   2
     Q(r) pseudized with 0 coefficients 


     atomic species   valence    mass     pseudopotential
        N              5.00    14.00670     N ( 1.00)
        Na             9.00    22.98977     Na( 1.00)
        Cs            -5.00   132.90545     Cs( 1.00)

     24 Sym. Ops. (no inversion) found



   Cartesian axes

     site n.     atom                  positions (alat units)
         1           N   tau(   1) = (   0.0000000   0.0000000   0.0000000  )
         2           Na  tau(   2) = (  -0.2500000   0.2500000   0.2500000  )
         3           Cs  tau(   3) = (  -0.7500000   0.7500000   0.7500000  )

     number of k points=   110  Methfessel-Paxton smearing, width (Ry)=  0.0200

     Number of k-points >= 100: set verbosity='high' to print them.

     Dense  grid:    41655 G-vectors     FFT dimensions: (  50,  50,  50)

     Estimated max dynamical RAM per process >      38.15 MB

     Estimated total dynamical RAM >     305.21 MB

     Check: negative/imaginary core charge=   -0.000003    0.000000

     Initial potential from superposition of free atoms

     starting charge   22.95298, renormalised to    9.00000
     Starting wfcs are   14 randomized atomic wfcs
     Checking if some PAW data can be deallocated... 

     total cpu time spent up to now is        5.6 secs

     Self-consistent Calculation

     iteration #  1     ecut=    80.00 Ry     beta= 0.40
     Davidson diagonalization with overlap
     c_bands:  4 eigenvalues not converged
     c_bands:  2 eigenvalues not converged
     c_bands:  2 eigenvalues not converged
     c_bands:  1 eigenvalues not converged
     c_bands:  3 eigenvalues not converged
     c_bands:  1 eigenvalues not converged
     c_bands:  1 eigenvalues not converged
     c_bands:  3 eigenvalues not converged
     c_bands:  1 eigenvalues not converged
     c_bands:  3 eigenvalues not converged
     c_bands:  3 eigenvalues not converged
     c_bands:  1 eigenvalues not converged
     c_bands:  3 eigenvalues not converged
     c_bands:  4 eigenvalues not converged
     c_bands:  1 eigenvalues not converged
     c_bands:  3 eigenvalues not converged
     c_bands:  1 eigenvalues not converged
     c_bands:  1 eigenvalues not converged
     c_bands:  1 eigenvalues not converged
     c_bands:  2 eigenvalues not converged
     c_bands:  1 eigenvalues not converged
     c_bands:  1 eigenvalues not converged
     c_bands:  1 eigenvalues not converged
     c_bands:  1 eigenvalues not converged
     c_bands:  1 eigenvalues not converged
     c_bands:  1 eigenvalues not converged
     c_bands:  1 eigenvalues not converged
     c_bands:  1 eigenvalues not converged
     c_bands:  1 eigenvalues not converged
     c_bands:  1 eigenvalues not converged
     c_bands:  1 eigenvalues not converged
     c_bands:  1 eigenvalues not converged
     c_bands:  2 eigenvalues not converged
     c_bands:  1 eigenvalues not converged
     c_bands:  1 eigenvalues not converged
     c_bands:  2 eigenvalues not converged
     c_bands:  1 eigenvalues not converged
     c_bands:  3 eigenvalues not converged
     c_bands:  1 eigenvalues not converged
     c_bands:  2 eigenvalues not converged
     c_bands:  2 eigenvalues not converged
     c_bands:  2 eigenvalues not converged
     c_bands:  3 eigenvalues not converged
     c_bands:  1 eigenvalues not converged
     c_bands:  1 eigenvalues not converged
     c_bands:  2 eigenvalues not converged
     c_bands:  1 eigenvalues not converged
     c_bands:  2 eigenvalues not converged
     c_bands:  1 eigenvalues not converged
     c_bands:  2 eigenvalues not converged
     c_bands:  1 eigenvalues not converged
     c_bands:  1 eigenvalues not converged
     c_bands:  2 eigenvalues not converged
     c_bands:  1 eigenvalues not converged
     c_bands:  2 eigenvalues not converged
     c_bands:  3 eigenvalues not converged
     c_bands:  2 eigenvalues not converged
     c_bands:  1 eigenvalues not converged
     c_bands:  1 eigenvalues not converged
     c_bands:  2 eigenvalues not converged
     c_bands:  1 eigenvalues not converged
     c_bands:  1 eigenvalues not converged
     c_bands:  1 eigenvalues not converged
     c_bands:  1 eigenvalues not converged
     c_bands:  2 eigenvalues not converged
     c_bands:  1 eigenvalues not converged
     c_bands:  3 eigenvalues not converged
     c_bands:  2 eigenvalues not converged
     c_bands:  2 eigenvalues not converged
     c_bands:  1 eigenvalues not converged
     c_bands:  1 eigenvalues not converged
     c_bands:  1 eigenvalues not converged
     c_bands:  1 eigenvalues not converged
     c_bands:  1 eigenvalues not converged
     c_bands:  2 eigenvalues not converged
     c_bands:  1 eigenvalues not converged
     c_bands:  1 eigenvalues not converged
     c_bands:  1 eigenvalues not converged
     c_bands:  1 eigenvalues not converged
     c_bands:  2 eigenvalues not converged
     c_bands:  1 eigenvalues not converged
     ethr =  1.00E-02,  avg # of iterations = 19.9

     negative rho (up, down):  1.685E-02 0.000E+00

     total cpu time spent up to now is       26.0 secs

     total energy              =    -864.27043238 Ry
     Harris-Foulkes estimate   =    -880.86044940 Ry
     estimated scf accuracy    <      31.14139897 Ry

     iteration #  2     ecut=    80.00 Ry     beta= 0.40
     Davidson diagonalization with overlap
     ethr =  1.00E-02,  avg # of iterations =  3.7

     negative rho (up, down):  3.204E-01 0.000E+00

     total cpu time spent up to now is       31.9 secs

     total energy              =    -857.57052390 Ry
     Harris-Foulkes estimate   =    -864.86797105 Ry
     estimated scf accuracy    <      10.34933502 Ry

     iteration #  3     ecut=    80.00 Ry     beta= 0.40
     Davidson diagonalization with overlap
     ethr =  1.00E-02,  avg # of iterations =  5.9

     negative rho (up, down):  2.239E-01 0.000E+00

     total cpu time spent up to now is       39.4 secs

     total energy              =    -861.87931784 Ry
     Harris-Foulkes estimate   =    -863.30803300 Ry
     estimated scf accuracy    <       3.34534596 Ry

     iteration #  4     ecut=    80.00 Ry     beta= 0.40
     Davidson diagonalization with overlap
     ethr =  1.00E-02,  avg # of iterations =  1.2

     negative rho (up, down):  4.332E+00 0.000E+00

     total cpu time spent up to now is       43.6 secs

     total energy              =    -932.18710799 Ry
     Harris-Foulkes estimate   =    -862.09580186 Ry
     estimated scf accuracy    <       2.42382997 Ry

     iteration #  5     ecut=    80.00 Ry     beta= 0.40
     Davidson diagonalization with overlap
     ethr =  1.00E-02,  avg # of iterations =  9.5

     negative rho (up, down):  3.872E-01 0.000E+00

     total cpu time spent up to now is       55.3 secs

     total energy              =    -860.73972689 Ry
     Harris-Foulkes estimate   =   -1028.91933560 Ry
     estimated scf accuracy    <     288.84425140 Ry

     iteration #  6     ecut=    80.00 Ry     beta= 0.40
     Davidson diagonalization with overlap
     ethr =  1.00E-02,  avg # of iterations =  8.8

     negative rho (up, down):  3.616E-01 0.000E+00

     total cpu time spent up to now is       65.1 secs

     total energy              =    -871.78973012 Ry
     Harris-Foulkes estimate   =    -871.45472202 Ry
     estimated scf accuracy    <      80.95079094 Ry

     iteration #  7     ecut=    80.00 Ry     beta= 0.40
     Davidson diagonalization with overlap
     ethr =  1.00E-02,  avg # of iterations =  1.0

     negative rho (up, down):  1.061E+00 0.000E+00

     total cpu time spent up to now is       69.4 secs

     total energy              =    -800.92457861 Ry
     Harris-Foulkes estimate   =    -871.79126040 Ry
     estimated scf accuracy    <      81.44416606 Ry

     iteration #  8     ecut=    80.00 Ry     beta= 0.40
     Davidson diagonalization with overlap
     ethr =  1.00E-02,  avg # of iterations = 11.8

     negative rho (up, down):  8.554E-01 0.000E+00

     total cpu time spent up to now is       83.2 secs

     total energy              =    -870.00122656 Ry
     Harris-Foulkes estimate   =    -926.78500771 Ry
     estimated scf accuracy    <      79.55280219 Ry

     iteration #  9     ecut=    80.00 Ry     beta= 0.40
     Davidson diagonalization with overlap
     ethr =  1.00E-02,  avg # of iterations =  3.2

     negative rho (up, down):  9.226E-01 0.000E+00

     total cpu time spent up to now is       89.3 secs

     total energy              =    -876.56743709 Ry
     Harris-Foulkes estimate   =    -870.23623673 Ry
     estimated scf accuracy    <      18.20175887 Ry

     iteration # 10     ecut=    80.00 Ry     beta= 0.40
     Davidson diagonalization with overlap
     ethr =  1.00E-02,  avg # of iterations =  1.0

     negative rho (up, down):  9.674E-01 0.000E+00

     total cpu time spent up to now is       93.3 secs

     total energy              =    -884.71534354 Ry
     Harris-Foulkes estimate   =    -876.57621061 Ry
     estimated scf accuracy    <      25.31087449 Ry

     iteration # 11     ecut=    80.00 Ry     beta= 0.40
     Davidson diagonalization with overlap
     ethr =  1.00E-02,  avg # of iterations =  1.0

     negative rho (up, down):  1.103E+00 0.000E+00

     total cpu time spent up to now is       97.4 secs

     total energy              =    -901.78957917 Ry
     Harris-Foulkes estimate   =    -884.72664726 Ry
     estimated scf accuracy    <      34.43922328 Ry

     iteration # 12     ecut=    80.00 Ry     beta= 0.40
     Davidson diagonalization with overlap
     ethr =  1.00E-02,  avg # of iterations =  1.1

     negative rho (up, down):  1.632E+00 0.000E+00

     total cpu time spent up to now is      101.8 secs

     total energy              =    -856.79920421 Ry
     Harris-Foulkes estimate   =    -901.81451301 Ry
     estimated scf accuracy    <      53.24882432 Ry

     iteration # 13     ecut=    80.00 Ry     beta= 0.40
     Davidson diagonalization with overlap
     ethr =  1.00E-02,  avg # of iterations =  8.1

     negative rho (up, down):  1.251E+00 0.000E+00

     total cpu time spent up to now is      114.3 secs

     total energy              =    -911.29056617 Ry
     Harris-Foulkes estimate   =    -922.15373407 Ry
     estimated scf accuracy    <     140.99179859 Ry

     iteration # 14     ecut=    80.00 Ry     beta= 0.40
     Davidson diagonalization with overlap
     ethr =  1.00E-02,  avg # of iterations =  1.0

     negative rho (up, down):  8.866E-02 0.000E+00

     total cpu time spent up to now is      118.4 secs

     total energy              =    -868.61896828 Ry
     Harris-Foulkes estimate   =    -911.31034269 Ry
     estimated scf accuracy    <     128.85599312 Ry

     iteration # 15     ecut=    80.00 Ry     beta= 0.40
     Davidson diagonalization with overlap
     ethr =  1.00E-02,  avg # of iterations =  2.0

     negative rho (up, down):  2.249E-02 0.000E+00

     total cpu time spent up to now is      123.4 secs

     total energy              =    -860.80524528 Ry
     Harris-Foulkes estimate   =    -869.50437026 Ry
     estimated scf accuracy    <      77.99416607 Ry

     iteration # 16     ecut=    80.00 Ry     beta= 0.40
     Davidson diagonalization with overlap
     ethr =  1.00E-02,  avg # of iterations =  1.0

     negative rho (up, down):  1.372E-01 0.000E+00

     total cpu time spent up to now is      127.4 secs

     total energy              =    -862.51197575 Ry
     Harris-Foulkes estimate   =    -867.47920172 Ry
     estimated scf accuracy    <       9.84749099 Ry

     iteration # 17     ecut=    80.00 Ry     beta= 0.40
     Davidson diagonalization with overlap
     ethr =  1.00E-02,  avg # of iterations =  2.0

     negative rho (up, down):  3.239E-01 0.000E+00

     total cpu time spent up to now is      132.1 secs

     total energy              =    -861.15170423 Ry
     Harris-Foulkes estimate   =    -862.63111697 Ry
     estimated scf accuracy    <       3.24771167 Ry

     iteration # 18     ecut=    80.00 Ry     beta= 0.40
     Davidson diagonalization with overlap
     ethr =  1.00E-02,  avg # of iterations =  1.0

     negative rho (up, down):  3.579E-01 0.000E+00

     total cpu time spent up to now is      136.2 secs

     total energy              =    -861.06175442 Ry
     Harris-Foulkes estimate   =    -861.17194026 Ry
     estimated scf accuracy    <       1.29641827 Ry

     iteration # 19     ecut=    80.00 Ry     beta= 0.40
     Davidson diagonalization with overlap
     ethr =  1.00E-02,  avg # of iterations =  1.0

     negative rho (up, down):  4.391E-01 0.000E+00

     total cpu time spent up to now is      140.5 secs

     total energy              =    -860.83300619 Ry
     Harris-Foulkes estimate   =    -861.06697011 Ry
     estimated scf accuracy    <       1.14028185 Ry

     iteration # 20     ecut=    80.00 Ry     beta= 0.40
     Davidson diagonalization with overlap
     ethr =  1.00E-02,  avg # of iterations =  1.0

     negative rho (up, down):  8.452E-01 0.000E+00

     total cpu time spent up to now is      144.6 secs

     total energy              =    -860.34522598 Ry
     Harris-Foulkes estimate   =    -860.83793004 Ry
     estimated scf accuracy    <       0.81479406 Ry

     iteration # 21     ecut=    80.00 Ry     beta= 0.40
     Davidson diagonalization with overlap
     ethr =  9.05E-03,  avg # of iterations =  1.0

     negative rho (up, down):  1.200E+00 0.000E+00

     total cpu time spent up to now is      148.6 secs

     total energy              =    -859.55915423 Ry
     Harris-Foulkes estimate   =    -860.63627204 Ry
     estimated scf accuracy    <       1.97920774 Ry

     iteration # 22     ecut=    80.00 Ry     beta= 0.40
     Davidson diagonalization with overlap
     ethr =  9.05E-03,  avg # of iterations =  1.0

     negative rho (up, down):  1.083E+00 0.000E+00

     total cpu time spent up to now is      152.7 secs

     total energy              =    -860.47879270 Ry
     Harris-Foulkes estimate   =    -860.41676812 Ry
     estimated scf accuracy    <       0.16552174 Ry

     iteration # 23     ecut=    80.00 Ry     beta= 0.40
     Davidson diagonalization with overlap
     ethr =  1.84E-03,  avg # of iterations =  3.0

     negative rho (up, down):  1.081E+00 0.000E+00

     total cpu time spent up to now is      158.5 secs

     total energy              =    -860.44237673 Ry
     Harris-Foulkes estimate   =    -860.51204192 Ry
     estimated scf accuracy    <       0.22124249 Ry

     iteration # 24     ecut=    80.00 Ry     beta= 0.40
     Davidson diagonalization with overlap
     ethr =  1.84E-03,  avg # of iterations =  1.0

     negative rho (up, down):  9.118E-01 0.000E+00

     total cpu time spent up to now is      162.6 secs

     total energy              =    -860.38596592 Ry
     Harris-Foulkes estimate   =    -860.44350940 Ry
     estimated scf accuracy    <       0.14918005 Ry

     iteration # 25     ecut=    80.00 Ry     beta= 0.40
     Davidson diagonalization with overlap
     ethr =  1.66E-03,  avg # of iterations =  3.0

     negative rho (up, down):  8.302E-01 0.000E+00

     total cpu time spent up to now is      168.3 secs

     total energy              =    -861.26818587 Ry
     Harris-Foulkes estimate   =    -861.02762072 Ry
     estimated scf accuracy    <       2.33738813 Ry

     iteration # 26     ecut=    80.00 Ry     beta= 0.40
     Davidson diagonalization with overlap
     ethr =  1.66E-03,  avg # of iterations =  1.0

     negative rho (up, down):  8.677E-01 0.000E+00

     total cpu time spent up to now is      172.3 secs

     total energy              =    -861.17917397 Ry
     Harris-Foulkes estimate   =    -861.27029522 Ry
     estimated scf accuracy    <       2.64714152 Ry

     iteration # 27     ecut=    80.00 Ry     beta= 0.40
     Davidson diagonalization with overlap
     ethr =  1.66E-03,  avg # of iterations =  1.0

     negative rho (up, down):  8.351E-01 0.000E+00

     total cpu time spent up to now is      176.5 secs

     total energy              =    -861.25896080 Ry
     Harris-Foulkes estimate   =    -861.18210864 Ry
     estimated scf accuracy    <       2.52623470 Ry

     iteration # 28     ecut=    80.00 Ry     beta= 0.40
     Davidson diagonalization with overlap
     ethr =  1.66E-03,  avg # of iterations =  1.2

     negative rho (up, down):  8.065E-01 0.000E+00

     total cpu time spent up to now is      180.9 secs

     total energy              =    -861.47398543 Ry
     Harris-Foulkes estimate   =    -861.37564096 Ry
     estimated scf accuracy    <       2.75583290 Ry

     iteration # 29     ecut=    80.00 Ry     beta= 0.40
     Davidson diagonalization with overlap
     ethr =  1.66E-03,  avg # of iterations =  2.0

     negative rho (up, down):  8.060E-01 0.000E+00

     total cpu time spent up to now is      185.6 secs

     total energy              =    -864.18429703 Ry
     Harris-Foulkes estimate   =    -862.66097155 Ry
     estimated scf accuracy    <       4.78467410 Ry

     iteration # 30     ecut=    80.00 Ry     beta= 0.40
     Davidson diagonalization with overlap
     c_bands:  1 eigenvalues not converged
     ethr =  1.66E-03,  avg # of iterations =  5.4

     negative rho (up, down):  8.503E-01 0.000E+00

     total cpu time spent up to now is      192.6 secs

     total energy              =    -867.93281796 Ry
     Harris-Foulkes estimate   =    -868.44585826 Ry
     estimated scf accuracy    <      16.96876581 Ry

     iteration # 31     ecut=    80.00 Ry     beta= 0.40
     Davidson diagonalization with overlap
     ethr =  1.66E-03,  avg # of iterations =  1.1

     negative rho (up, down):  8.407E-01 0.000E+00

     total cpu time spent up to now is      196.8 secs

     total energy              =    -866.37419127 Ry
     Harris-Foulkes estimate   =    -867.93436961 Ry
     estimated scf accuracy    <      16.41232502 Ry

     iteration # 32     ecut=    80.00 Ry     beta= 0.40
     Davidson diagonalization with overlap
     ethr =  1.66E-03,  avg # of iterations =  1.0

     negative rho (up, down):  8.745E-01 0.000E+00

     total cpu time spent up to now is      201.0 secs

     total energy              =    -866.33070797 Ry
     Harris-Foulkes estimate   =    -866.37645941 Ry
     estimated scf accuracy    <      14.53423663 Ry

     iteration # 33     ecut=    80.00 Ry     beta= 0.40
     Davidson diagonalization with overlap
     ethr =  1.66E-03,  avg # of iterations =  1.0

     negative rho (up, down):  9.321E-01 0.000E+00

     total cpu time spent up to now is      205.1 secs

     total energy              =    -866.76570843 Ry
     Harris-Foulkes estimate   =    -866.33120976 Ry
     estimated scf accuracy    <      14.49952169 Ry

     iteration # 34     ecut=    80.00 Ry     beta= 0.40
     Davidson diagonalization with overlap
     ethr =  1.66E-03,  avg # of iterations =  1.0

     negative rho (up, down):  9.558E-01 0.000E+00

     total cpu time spent up to now is      209.3 secs

     total energy              =    -867.10050866 Ry
     Harris-Foulkes estimate   =    -866.76607995 Ry
     estimated scf accuracy    <      15.11310187 Ry

     iteration # 35     ecut=    80.00 Ry     beta= 0.40
     Davidson diagonalization with overlap
     ethr =  1.66E-03,  avg # of iterations =  1.0

     negative rho (up, down):  1.114E+00 0.000E+00

     total cpu time spent up to now is      213.4 secs

     total energy              =    -867.94129821 Ry
     Harris-Foulkes estimate   =    -867.10129849 Ry
     estimated scf accuracy    <      15.63977991 Ry

     iteration # 36     ecut=    80.00 Ry     beta= 0.40
     Davidson diagonalization with overlap
     ethr =  1.66E-03,  avg # of iterations =  1.0

     negative rho (up, down):  8.058E-01 0.000E+00

     total cpu time spent up to now is      217.4 secs

     total energy              =    -865.61730042 Ry
     Harris-Foulkes estimate   =    -867.94810492 Ry
     estimated scf accuracy    <      17.47636494 Ry

     iteration # 37     ecut=    80.00 Ry     beta= 0.40
     Davidson diagonalization with overlap
     ethr =  1.66E-03,  avg # of iterations =  2.0

     negative rho (up, down):  4.553E-01 0.000E+00

     total cpu time spent up to now is      222.1 secs

     total energy              =    -854.74354711 Ry
     Harris-Foulkes estimate   =    -865.64336360 Ry
     estimated scf accuracy    <      13.45811619 Ry

     iteration # 38     ecut=    80.00 Ry     beta= 0.40
     Davidson diagonalization with overlap
     ethr =  1.66E-03,  avg # of iterations = 10.5

     negative rho (up, down):  5.790E-02 0.000E+00

     total cpu time spent up to now is      232.6 secs

     total energy              =    -846.85903424 Ry
     Harris-Foulkes estimate   =    -900.61901372 Ry
     estimated scf accuracy    <     121.00362031 Ry

     iteration # 39     ecut=    80.00 Ry     beta= 0.40
     Davidson diagonalization with overlap
     ethr =  1.66E-03,  avg # of iterations =  4.0

     negative rho (up, down):  8.027E-01 0.000E+00

     total cpu time spent up to now is      240.0 secs

     total energy              =    -860.83908276 Ry
     Harris-Foulkes estimate   =    -865.13697011 Ry
     estimated scf accuracy    <       8.65012992 Ry

     iteration # 40     ecut=    80.00 Ry     beta= 0.40
     Davidson diagonalization with overlap
     ethr =  1.66E-03,  avg # of iterations =  4.0

     negative rho (up, down):  1.070E+00 0.000E+00

     total cpu time spent up to now is      246.2 secs

     total energy              =    -861.71708635 Ry
     Harris-Foulkes estimate   =    -861.22614452 Ry
     estimated scf accuracy    <       2.57214582 Ry

     iteration # 41     ecut=    80.00 Ry     beta= 0.40
     Davidson diagonalization with overlap
     ethr =  1.66E-03,  avg # of iterations =  2.0

     negative rho (up, down):  9.815E-01 0.000E+00

     total cpu time spent up to now is      250.9 secs

     total energy              =    -861.98280335 Ry
     Harris-Foulkes estimate   =    -861.74189008 Ry
     estimated scf accuracy    <       3.00928013 Ry

     iteration # 42     ecut=    80.00 Ry     beta= 0.40
     Davidson diagonalization with overlap
     ethr =  1.66E-03,  avg # of iterations =  1.0

     negative rho (up, down):  8.555E-01 0.000E+00

     total cpu time spent up to now is      255.2 secs

     total energy              =    -861.41785496 Ry
     Harris-Foulkes estimate   =    -861.98757055 Ry
     estimated scf accuracy    <       3.30120413 Ry

     iteration # 43     ecut=    80.00 Ry     beta= 0.40
     Davidson diagonalization with overlap
     ethr =  1.66E-03,  avg # of iterations =  1.0

     negative rho (up, down):  8.756E-01 0.000E+00

     total cpu time spent up to now is      259.3 secs

     total energy              =    -861.38649933 Ry
     Harris-Foulkes estimate   =    -861.42135444 Ry
     estimated scf accuracy    <       2.65494925 Ry

     iteration # 44     ecut=    80.00 Ry     beta= 0.40
     Davidson diagonalization with overlap
     ethr =  1.66E-03,  avg # of iterations =  1.0

     negative rho (up, down):  1.043E+00 0.000E+00

     total cpu time spent up to now is      263.4 secs

     total energy              =    -860.44323679 Ry
     Harris-Foulkes estimate   =    -861.38854370 Ry
     estimated scf accuracy    <       2.61211968 Ry

     iteration # 45     ecut=    80.00 Ry     beta= 0.40
     Davidson diagonalization with overlap
     ethr =  1.66E-03,  avg # of iterations =  2.0

     negative rho (up, down):  1.034E+00 0.000E+00

     total cpu time spent up to now is      267.7 secs

     total energy              =    -859.72427870 Ry
     Harris-Foulkes estimate   =    -860.45292456 Ry
     estimated scf accuracy    <       1.47501702 Ry

     iteration # 46     ecut=    80.00 Ry     beta= 0.40
     Davidson diagonalization with overlap
     ethr =  1.66E-03,  avg # of iterations =  2.0

     negative rho (up, down):  9.998E-01 0.000E+00

     total cpu time spent up to now is      272.0 secs

     total energy              =    -860.34549900 Ry
     Harris-Foulkes estimate   =    -860.43623311 Ry
     estimated scf accuracy    <       0.16228201 Ry

     iteration # 47     ecut=    80.00 Ry     beta= 0.40
     Davidson diagonalization with overlap
     ethr =  1.66E-03,  avg # of iterations =  1.0

     negative rho (up, down):  1.298E+00 0.000E+00

     total cpu time spent up to now is      276.2 secs

     total energy              =    -861.62951021 Ry
     Harris-Foulkes estimate   =    -860.34985242 Ry
     estimated scf accuracy    <       0.03001964 Ry

     iteration # 48     ecut=    80.00 Ry     beta= 0.40
     Davidson diagonalization with overlap
     ethr =  3.34E-04,  avg # of iterations =  4.0

     negative rho (up, down):  1.119E+00 0.000E+00

     total cpu time spent up to now is      283.1 secs

     total energy              =    -858.80893875 Ry
     Harris-Foulkes estimate   =    -865.99602220 Ry
     estimated scf accuracy    <      54.59809686 Ry

     iteration # 49     ecut=    80.00 Ry     beta= 0.40
     Davidson diagonalization with overlap
     ethr =  3.34E-04,  avg # of iterations =  7.5

     negative rho (up, down):  1.270E+00 0.000E+00

     total cpu time spent up to now is      291.8 secs

     total energy              =    -865.83051715 Ry
     Harris-Foulkes estimate   =    -865.49053306 Ry
     estimated scf accuracy    <      10.26293029 Ry

     iteration # 50     ecut=    80.00 Ry     beta= 0.40
     Davidson diagonalization with overlap
     ethr =  3.34E-04,  avg # of iterations =  3.0

     negative rho (up, down):  1.220E+00 0.000E+00

     total cpu time spent up to now is      297.5 secs

     total energy              =    -865.54837951 Ry
     Harris-Foulkes estimate   =    -865.83913727 Ry
     estimated scf accuracy    <      11.90455699 Ry

     iteration # 51     ecut=    80.00 Ry     beta= 0.40
     Davidson diagonalization with overlap
     ethr =  3.34E-04,  avg # of iterations =  2.0

     negative rho (up, down):  1.574E+00 0.000E+00

     total cpu time spent up to now is      301.9 secs

     total energy              =    -868.80975812 Ry
     Harris-Foulkes estimate   =    -865.54999556 Ry
     estimated scf accuracy    <      11.25982629 Ry

     iteration # 52     ecut=    80.00 Ry     beta= 0.40
     Davidson diagonalization with overlap
     ethr =  3.34E-04,  avg # of iterations =  5.0

     negative rho (up, down):  1.303E+00 0.000E+00

     total cpu time spent up to now is      309.0 secs

     total energy              =    -867.23696321 Ry
     Harris-Foulkes estimate   =    -868.95664966 Ry
     estimated scf accuracy    <      17.19518570 Ry

     iteration # 53     ecut=    80.00 Ry     beta= 0.40
     Davidson diagonalization with overlap
     ethr =  3.34E-04,  avg # of iterations =  4.0

     negative rho (up, down):  8.078E-01 0.000E+00

     total cpu time spent up to now is      317.2 secs

     total energy              =    -845.71432474 Ry
     Harris-Foulkes estimate   =    -875.27943246 Ry
     estimated scf accuracy    <      90.61844280 Ry

     iteration # 54     ecut=    80.00 Ry     beta= 0.40
     Davidson diagonalization with overlap
     ethr =  3.34E-04,  avg # of iterations =  4.0

     negative rho (up, down):  7.116E-01 0.000E+00

     total cpu time spent up to now is      325.4 secs

     total energy              =    -864.86431112 Ry
     Harris-Foulkes estimate   =    -864.89612681 Ry
     estimated scf accuracy    <      12.13318984 Ry

     iteration # 55     ecut=    80.00 Ry     beta= 0.40
     Davidson diagonalization with overlap
     ethr =  3.34E-04,  avg # of iterations =  2.6

     negative rho (up, down):  4.952E-01 0.000E+00

     total cpu time spent up to now is      330.5 secs

     total energy              =    -865.45747177 Ry
     Harris-Foulkes estimate   =    -864.87168505 Ry
     estimated scf accuracy    <      11.80037637 Ry

     iteration # 56     ecut=    80.00 Ry     beta= 0.40
     Davidson diagonalization with overlap
     ethr =  3.34E-04,  avg # of iterations =  3.0

     negative rho (up, down):  8.590E-02 0.000E+00

     total cpu time spent up to now is      336.9 secs

     total energy              =    -858.28802240 Ry
     Harris-Foulkes estimate   =    -865.48185529 Ry
     estimated scf accuracy    <      12.13108111 Ry

     iteration # 57     ecut=    80.00 Ry     beta= 0.40
     Davidson diagonalization with overlap
     ethr =  3.34E-04,  avg # of iterations =  4.0

     negative rho (up, down):  2.774E-01 0.000E+00

     total cpu time spent up to now is      344.7 secs

     total energy              =    -860.70037428 Ry
     Harris-Foulkes estimate   =    -863.93674745 Ry
     estimated scf accuracy    <       8.19640208 Ry

     iteration # 58     ecut=    80.00 Ry     beta= 0.40
     Davidson diagonalization with overlap
     ethr =  3.34E-04,  avg # of iterations =  4.0

     negative rho (up, down):  4.895E-01 0.000E+00

     total cpu time spent up to now is      351.2 secs

     total energy              =    -860.72153668 Ry
     Harris-Foulkes estimate   =    -861.66916461 Ry
     estimated scf accuracy    <       2.14355696 Ry

     iteration # 59     ecut=    80.00 Ry     beta= 0.40
     Davidson diagonalization with overlap
     ethr =  3.34E-04,  avg # of iterations =  3.0

     negative rho (up, down):  5.946E-01 0.000E+00

     total cpu time spent up to now is      357.5 secs

     total energy              =    -862.80182144 Ry
     Harris-Foulkes estimate   =    -862.39594780 Ry
     estimated scf accuracy    <       4.76746715 Ry

     iteration # 60     ecut=    80.00 Ry     beta= 0.40
     Davidson diagonalization with overlap
     ethr =  3.34E-04,  avg # of iterations =  2.4

     negative rho (up, down):  5.724E-01 0.000E+00

     total cpu time spent up to now is      363.3 secs

     total energy              =    -862.75701514 Ry
     Harris-Foulkes estimate   =    -862.80949064 Ry
     estimated scf accuracy    <       5.50626764 Ry

     iteration # 61     ecut=    80.00 Ry     beta= 0.40
     Davidson diagonalization with overlap
     ethr =  3.34E-04,  avg # of iterations =  2.4

     negative rho (up, down):  5.733E-01 0.000E+00

     total cpu time spent up to now is      369.0 secs

     total energy              =    -862.76453516 Ry
     Harris-Foulkes estimate   =    -862.76330203 Ry
     estimated scf accuracy    <       5.29348397 Ry

     iteration # 62     ecut=    80.00 Ry     beta= 0.40
     Davidson diagonalization with overlap
     ethr =  3.34E-04,  avg # of iterations =  1.0

     negative rho (up, down):  5.015E-01 0.000E+00

     total cpu time spent up to now is      373.2 secs

     total energy              =    -862.30220835 Ry
     Harris-Foulkes estimate   =    -862.76470692 Ry
     estimated scf accuracy    <       5.30581615 Ry

     iteration # 63     ecut=    80.00 Ry     beta= 0.40
     Davidson diagonalization with overlap
     ethr =  3.34E-04,  avg # of iterations =  2.4

     negative rho (up, down):  1.347E+00 0.000E+00

     total cpu time spent up to now is      377.6 secs

     total energy              =    -868.65434680 Ry
     Harris-Foulkes estimate   =    -862.30590893 Ry
     estimated scf accuracy    <       4.69123202 Ry

     iteration # 64     ecut=    80.00 Ry     beta= 0.40
     Davidson diagonalization with overlap
     c_bands:  2 eigenvalues not converged
     c_bands:  2 eigenvalues not converged
     c_bands:  2 eigenvalues not converged
     c_bands:  2 eigenvalues not converged
     c_bands:  2 eigenvalues not converged
     c_bands:  1 eigenvalues not converged
     c_bands:  2 eigenvalues not converged
     c_bands:  2 eigenvalues not converged
     c_bands:  2 eigenvalues not converged
     c_bands:  2 eigenvalues not converged
     c_bands:  2 eigenvalues not converged
     c_bands:  2 eigenvalues not converged
     c_bands:  2 eigenvalues not converged
     c_bands:  2 eigenvalues not converged
     c_bands:  2 eigenvalues not converged
     c_bands:  2 eigenvalues not converged
     c_bands:  2 eigenvalues not converged
     c_bands:  2 eigenvalues not converged
     c_bands:  2 eigenvalues not converged
     c_bands:  1 eigenvalues not converged
     c_bands:  2 eigenvalues not converged
     c_bands:  2 eigenvalues not converged
     c_bands:  2 eigenvalues not converged
     c_bands:  2 eigenvalues not converged
     c_bands:  2 eigenvalues not converged
     c_bands:  2 eigenvalues not converged
     c_bands:  2 eigenvalues not converged
     c_bands:  2 eigenvalues not converged
     c_bands:  2 eigenvalues not converged
     c_bands:  1 eigenvalues not converged
     c_bands:  2 eigenvalues not converged
     c_bands:  2 eigenvalues not converged
     c_bands:  2 eigenvalues not converged
     c_bands:  2 eigenvalues not converged
     c_bands:  2 eigenvalues not converged
     c_bands:  2 eigenvalues not converged
     c_bands:  2 eigenvalues not converged
     c_bands:  2 eigenvalues not converged
     c_bands:  2 eigenvalues not converged
     c_bands:  2 eigenvalues not converged
     c_bands:  2 eigenvalues not converged
     c_bands:  2 eigenvalues not converged
     ethr =  3.34E-04,  avg # of iterations = 18.4

     negative rho (up, down):  2.203E-01 0.000E+00

     total cpu time spent up to now is      397.4 secs

     total energy              =    -855.23747883 Ry
     Harris-Foulkes estimate   =    -874.55474751 Ry
     estimated scf accuracy    <      27.21014133 Ry

     iteration # 65     ecut=    80.00 Ry     beta= 0.40
     Davidson diagonalization with overlap
     ethr =  3.34E-04,  avg # of iterations = 13.3

     negative rho (up, down):  9.451E-01 0.000E+00

     total cpu time spent up to now is      414.5 secs

     total energy              =    -839.93152041 Ry
     Harris-Foulkes estimate   =    -867.74943168 Ry
     estimated scf accuracy    <      76.33325621 Ry

     iteration # 66     ecut=    80.00 Ry     beta= 0.40
     Davidson diagonalization with overlap
     ethr =  3.34E-04,  avg # of iterations =  4.4

     negative rho (up, down):  4.668E-01 0.000E+00

     total cpu time spent up to now is      422.6 secs

     total energy              =    -861.96621357 Ry
     Harris-Foulkes estimate   =    -867.90323121 Ry
     estimated scf accuracy    <      16.00505551 Ry

     iteration # 67     ecut=    80.00 Ry     beta= 0.40
     Davidson diagonalization with overlap
     ethr =  3.34E-04,  avg # of iterations =  4.0

     negative rho (up, down):  2.023E-01 0.000E+00

     total cpu time spent up to now is      430.0 secs

     total energy              =    -860.34126803 Ry
     Harris-Foulkes estimate   =    -862.19286202 Ry
     estimated scf accuracy    <       4.40895591 Ry

     iteration # 68     ecut=    80.00 Ry     beta= 0.40
     Davidson diagonalization with overlap
     ethr =  3.34E-04,  avg # of iterations =  4.0

     negative rho (up, down):  3.567E-01 0.000E+00

     total cpu time spent up to now is      437.4 secs

     total energy              =    -861.14127378 Ry
     Harris-Foulkes estimate   =    -862.87565028 Ry
     estimated scf accuracy    <       3.98515137 Ry

     iteration # 69     ecut=    80.00 Ry     beta= 0.40
     Davidson diagonalization with overlap
     ethr =  3.34E-04,  avg # of iterations =  3.0

     negative rho (up, down):  3.308E-01 0.000E+00

     total cpu time spent up to now is      443.8 secs

     total energy              =    -861.44165234 Ry
     Harris-Foulkes estimate   =    -861.55937244 Ry
     estimated scf accuracy    <       3.51133702 Ry

     iteration # 70     ecut=    80.00 Ry     beta= 0.40
     Davidson diagonalization with overlap
     ethr =  3.34E-04,  avg # of iterations =  1.0

     negative rho (up, down):  6.123E-01 0.000E+00

     total cpu time spent up to now is      448.0 secs

     total energy              =    -863.33953430 Ry
     Harris-Foulkes estimate   =    -861.44171773 Ry
     estimated scf accuracy    <       3.53245730 Ry

     iteration # 71     ecut=    80.00 Ry     beta= 0.40
     Davidson diagonalization with overlap
     ethr =  3.34E-04,  avg # of iterations =  4.0

     negative rho (up, down):  5.207E-01 0.000E+00

     total cpu time spent up to now is      455.0 secs

     total energy              =    -863.16140118 Ry
     Harris-Foulkes estimate   =    -865.13501314 Ry
     estimated scf accuracy    <      11.64687358 Ry

     iteration # 72     ecut=    80.00 Ry     beta= 0.40
     Davidson diagonalization with overlap
     ethr =  3.34E-04,  avg # of iterations =  2.0

     negative rho (up, down):  4.621E-01 0.000E+00

     total cpu time spent up to now is      460.1 secs

     total energy              =    -862.80213711 Ry
     Harris-Foulkes estimate   =    -863.16511392 Ry
     estimated scf accuracy    <       9.44143002 Ry

     iteration # 73     ecut=    80.00 Ry     beta= 0.40
     Davidson diagonalization with overlap
     ethr =  3.34E-04,  avg # of iterations =  1.0

     negative rho (up, down):  7.073E-01 0.000E+00

     total cpu time spent up to now is      464.2 secs

     total energy              =    -865.89394902 Ry
     Harris-Foulkes estimate   =    -862.80281286 Ry
     estimated scf accuracy    <       8.98939672 Ry

     iteration # 74     ecut=    80.00 Ry     beta= 0.40
     Davidson diagonalization with overlap
     ethr =  3.34E-04,  avg # of iterations =  2.0

     negative rho (up, down):  3.699E-01 0.000E+00

     total cpu time spent up to now is      469.5 secs

     total energy              =    -860.72132758 Ry
     Harris-Foulkes estimate   =    -865.90089274 Ry
     estimated scf accuracy    <      12.40496431 Ry

     iteration # 75     ecut=    80.00 Ry     beta= 0.40
     Davidson diagonalization with overlap
     ethr =  3.34E-04,  avg # of iterations =  4.0

     negative rho (up, down):  3.305E-01 0.000E+00

     total cpu time spent up to now is      475.8 secs

     total energy              =    -861.59362697 Ry
     Harris-Foulkes estimate   =    -861.89633917 Ry
     estimated scf accuracy    <       3.99352195 Ry

     iteration # 76     ecut=    80.00 Ry     beta= 0.40
     Davidson diagonalization with overlap
     ethr =  3.34E-04,  avg # of iterations =  2.0

     negative rho (up, down):  3.777E-01 0.000E+00

     total cpu time spent up to now is      480.5 secs

     total energy              =    -861.93030006 Ry
     Harris-Foulkes estimate   =    -861.59557278 Ry
     estimated scf accuracy    <       3.54009488 Ry

     iteration # 77     ecut=    80.00 Ry     beta= 0.40
     Davidson diagonalization with overlap
     ethr =  3.34E-04,  avg # of iterations =  3.0

     negative rho (up, down):  1.410E-01 0.000E+00

     total cpu time spent up to now is      485.9 secs

     total energy              =    -877.74465718 Ry
     Harris-Foulkes estimate   =    -862.18746038 Ry
     estimated scf accuracy    <       8.45950927 Ry

     iteration # 78     ecut=    80.00 Ry     beta= 0.40
     Davidson diagonalization with overlap
     c_bands:  3 eigenvalues not converged
     c_bands:  1 eigenvalues not converged
     c_bands:  1 eigenvalues not converged
     c_bands:  2 eigenvalues not converged
     c_bands:  2 eigenvalues not converged
     c_bands:  2 eigenvalues not converged
     c_bands:  1 eigenvalues not converged
     c_bands:  1 eigenvalues not converged
     c_bands:  2 eigenvalues not converged
     c_bands:  2 eigenvalues not converged
     c_bands:  1 eigenvalues not converged
     c_bands:  1 eigenvalues not converged
     c_bands:  2 eigenvalues not converged
     c_bands:  2 eigenvalues not converged
     c_bands:  2 eigenvalues not converged
     c_bands:  1 eigenvalues not converged
     c_bands:  1 eigenvalues not converged
     c_bands:  1 eigenvalues not converged
     c_bands:  2 eigenvalues not converged
     c_bands:  1 eigenvalues not converged
     c_bands:  1 eigenvalues not converged
     c_bands:  2 eigenvalues not converged
     c_bands:  1 eigenvalues not converged
     c_bands:  1 eigenvalues not converged
     c_bands:  2 eigenvalues not converged
     c_bands:  2 eigenvalues not converged
     c_bands:  1 eigenvalues not converged
     c_bands:  1 eigenvalues not converged
     c_bands:  2 eigenvalues not converged
     c_bands:  1 eigenvalues not converged
     c_bands:  2 eigenvalues not converged
     c_bands:  2 eigenvalues not converged
     c_bands:  2 eigenvalues not converged
     c_bands:  1 eigenvalues not converged
     c_bands:  1 eigenvalues not converged
     c_bands:  1 eigenvalues not converged
     c_bands:  2 eigenvalues not converged
     c_bands:  2 eigenvalues not converged
     c_bands:  3 eigenvalues not converged
     c_bands:  2 eigenvalues not converged
     c_bands:  2 eigenvalues not converged
     c_bands:  2 eigenvalues not converged
     c_bands:  1 eigenvalues not converged
     c_bands:  2 eigenvalues not converged
     c_bands:  1 eigenvalues not converged
     c_bands:  1 eigenvalues not converged
     c_bands:  1 eigenvalues not converged
     c_bands:  2 eigenvalues not converged
     c_bands:  3 eigenvalues not converged
     c_bands:  2 eigenvalues not converged
     c_bands:  2 eigenvalues not converged
     c_bands:  2 eigenvalues not converged
     c_bands:  2 eigenvalues not converged
     c_bands:  1 eigenvalues not converged
     c_bands:  1 eigenvalues not converged
     c_bands:  1 eigenvalues not converged
     c_bands:  1 eigenvalues not converged
     c_bands:  2 eigenvalues not converged
     c_bands:  2 eigenvalues not converged
     c_bands:  2 eigenvalues not converged
     c_bands:  2 eigenvalues not converged
     c_bands:  1 eigenvalues not converged
     c_bands:  1 eigenvalues not converged
     c_bands:  2 eigenvalues not converged
     c_bands:  1 eigenvalues not converged
     c_bands:  2 eigenvalues not converged
     c_bands:  2 eigenvalues not converged
     c_bands:  2 eigenvalues not converged
     c_bands:  2 eigenvalues not converged
     c_bands:  2 eigenvalues not converged
     c_bands:  1 eigenvalues not converged
     c_bands:  2 eigenvalues not converged
     c_bands:  1 eigenvalues not converged
     c_bands:  1 eigenvalues not converged
     c_bands:  1 eigenvalues not converged
     c_bands:  2 eigenvalues not converged
     c_bands:  2 eigenvalues not converged
     c_bands:  2 eigenvalues not converged
     c_bands:  1 eigenvalues not converged
     c_bands:  1 eigenvalues not converged
     c_bands:  2 eigenvalues not converged
     c_bands:  1 eigenvalues not converged
     c_bands:  2 eigenvalues not converged
     c_bands:  1 eigenvalues not converged
     c_bands:  2 eigenvalues not converged
     c_bands:  1 eigenvalues not converged
     c_bands:  2 eigenvalues not converged
     c_bands:  1 eigenvalues not converged
     c_bands:  2 eigenvalues not converged
     c_bands:  1 eigenvalues not converged
     c_bands:  1 eigenvalues not converged
     c_bands:  2 eigenvalues not converged
     c_bands:  1 eigenvalues not converged
     c_bands:  2 eigenvalues not converged
     c_bands:  2 eigenvalues not converged
     c_bands:  2 eigenvalues not converged
     c_bands:  2 eigenvalues not converged
     c_bands:  2 eigenvalues not converged
     c_bands:  2 eigenvalues not converged
     c_bands:  2 eigenvalues not converged
     c_bands:  2 eigenvalues not converged
     c_bands:  1 eigenvalues not converged
     c_bands:  1 eigenvalues not converged
     ethr =  3.34E-04,  avg # of iterations = 20.0

     negative rho (up, down):  2.222E-03 0.000E+00

     total cpu time spent up to now is      505.6 secs

     total energy              =    -859.96654296 Ry
     Harris-Foulkes estimate   =    -877.86112646 Ry
     estimated scf accuracy    <      26.91687313 Ry

     iteration # 79     ecut=    80.00 Ry     beta= 0.40
     Davidson diagonalization with overlap
     c_bands:  1 eigenvalues not converged
     c_bands:  1 eigenvalues not converged
     c_bands:  1 eigenvalues not converged
     c_bands:  1 eigenvalues not converged
     c_bands:  1 eigenvalues not converged
     c_bands:  1 eigenvalues not converged
     c_bands:  1 eigenvalues not converged
     c_bands:  1 eigenvalues not converged
     c_bands:  1 eigenvalues not converged
     ethr =  3.34E-04,  avg # of iterations = 17.6

     negative rho (up, down):  1.673E-01 0.000E+00

     total cpu time spent up to now is      523.4 secs

     total energy              =    -862.86998906 Ry
     Harris-Foulkes estimate   =    -866.10915079 Ry
     estimated scf accuracy    <      10.20396546 Ry

     iteration # 80     ecut=    80.00 Ry     beta= 0.40
     Davidson diagonalization with overlap
     ethr =  3.34E-04,  avg # of iterations =  3.7

     negative rho (up, down):  6.516E-01 0.000E+00

     total cpu time spent up to now is      530.1 secs

     total energy              =    -861.16856761 Ry
     Harris-Foulkes estimate   =    -863.05310626 Ry
     estimated scf accuracy    <       5.62624590 Ry

     iteration # 81     ecut=    80.00 Ry     beta= 0.40
     Davidson diagonalization with overlap
     ethr =  3.34E-04,  avg # of iterations =  7.3

     negative rho (up, down):  3.304E-01 0.000E+00

     total cpu time spent up to now is      539.5 secs

     total energy              =    -863.61590035 Ry
     Harris-Foulkes estimate   =    -864.12406526 Ry
     estimated scf accuracy    <      11.09165949 Ry

     iteration # 82     ecut=    80.00 Ry     beta= 0.40
     Davidson diagonalization with overlap
     ethr =  3.34E-04,  avg # of iterations =  3.0

     negative rho (up, down):  3.370E-01 0.000E+00

     total cpu time spent up to now is      545.0 secs

     total energy              =    -863.53827970 Ry
     Harris-Foulkes estimate   =    -863.65392362 Ry
     estimated scf accuracy    <      10.08950285 Ry

     iteration # 83     ecut=    80.00 Ry     beta= 0.40
     Davidson diagonalization with overlap
     ethr =  3.34E-04,  avg # of iterations =  1.0

     negative rho (up, down):  2.587E-01 0.000E+00

     total cpu time spent up to now is      549.2 secs

     total energy              =    -862.89034316 Ry
     Harris-Foulkes estimate   =    -863.53854723 Ry
     estimated scf accuracy    <       9.97134364 Ry

     iteration # 84     ecut=    80.00 Ry     beta= 0.40
     Davidson diagonalization with overlap
     ethr =  3.34E-04,  avg # of iterations =  2.0

     negative rho (up, down):  2.866E-01 0.000E+00

     total cpu time spent up to now is      553.6 secs

     total energy              =    -863.28087881 Ry
     Harris-Foulkes estimate   =    -862.89299573 Ry
     estimated scf accuracy    <       9.16206744 Ry

     iteration # 85     ecut=    80.00 Ry     beta= 0.40
     Davidson diagonalization with overlap
     ethr =  3.34E-04,  avg # of iterations =  1.0

     negative rho (up, down):  2.201E-01 0.000E+00

     total cpu time spent up to now is      557.8 secs

     total energy              =    -856.50895598 Ry
     Harris-Foulkes estimate   =    -863.28126251 Ry
     estimated scf accuracy    <       9.62134334 Ry

     iteration # 86     ecut=    80.00 Ry     beta= 0.40
     Davidson diagonalization with overlap
     ethr =  3.34E-04,  avg # of iterations =  4.4

     negative rho (up, down):  1.138E-01 0.000E+00

     total cpu time spent up to now is      564.9 secs

     total energy              =    -863.22806399 Ry
     Harris-Foulkes estimate   =    -876.90982790 Ry
     estimated scf accuracy    <      89.05589864 Ry

     iteration # 87     ecut=    80.00 Ry     beta= 0.40
     Davidson diagonalization with overlap
     ethr =  3.34E-04,  avg # of iterations =  4.0

     negative rho (up, down):  1.067E+00 0.000E+00

     total cpu time spent up to now is      571.9 secs

     total energy              =    -851.27096877 Ry
     Harris-Foulkes estimate   =    -864.13319044 Ry
     estimated scf accuracy    <      50.75098250 Ry

     iteration # 88     ecut=    80.00 Ry     beta= 0.40
     Davidson diagonalization with overlap
     ethr =  3.34E-04,  avg # of iterations =  5.0

     negative rho (up, down):  1.705E-01 0.000E+00

     total cpu time spent up to now is      580.1 secs

     total energy              =    -859.95061602 Ry
     Harris-Foulkes estimate   =    -865.36271996 Ry
     estimated scf accuracy    <      13.93958797 Ry

     iteration # 89     ecut=    80.00 Ry     beta= 0.40
     Davidson diagonalization with overlap
     ethr =  3.34E-04,  avg # of iterations =  4.0

     negative rho (up, down):  2.359E-01 0.000E+00

     total cpu time spent up to now is      586.7 secs

     total energy              =    -861.28320455 Ry
     Harris-Foulkes estimate   =    -861.61877255 Ry
     estimated scf accuracy    <       1.90190483 Ry

     iteration # 90     ecut=    80.00 Ry     beta= 0.40
     Davidson diagonalization with overlap
     ethr =  3.34E-04,  avg # of iterations =  2.0

     negative rho (up, down):  1.460E-01 0.000E+00

     total cpu time spent up to now is      591.3 secs

     total energy              =    -859.99055518 Ry
     Harris-Foulkes estimate   =    -861.53102681 Ry
     estimated scf accuracy    <       7.47595776 Ry

     iteration # 91     ecut=    80.00 Ry     beta= 0.40
     Davidson diagonalization with overlap
     ethr =  3.34E-04,  avg # of iterations =  2.0

     negative rho (up, down):  1.318E-01 0.000E+00

     total cpu time spent up to now is      596.2 secs

     total energy              =    -862.19394701 Ry
     Harris-Foulkes estimate   =    -861.94290996 Ry
     estimated scf accuracy    <       2.28521731 Ry

     iteration # 92     ecut=    80.00 Ry     beta= 0.40
     Davidson diagonalization with overlap
     ethr =  3.34E-04,  avg # of iterations =  2.0

     negative rho (up, down):  1.493E-01 0.000E+00

     total cpu time spent up to now is      600.8 secs

     total energy              =    -862.06657150 Ry
     Harris-Foulkes estimate   =    -862.19801991 Ry
     estimated scf accuracy    <       2.67106488 Ry

     iteration # 93     ecut=    80.00 Ry     beta= 0.40
     Davidson diagonalization with overlap
     ethr =  3.34E-04,  avg # of iterations =  1.0

     negative rho (up, down):  2.067E-01 0.000E+00

     total cpu time spent up to now is      604.9 secs

     total energy              =    -861.65326644 Ry
     Harris-Foulkes estimate   =    -862.06713506 Ry
     estimated scf accuracy    <       2.48691726 Ry

     iteration # 94     ecut=    80.00 Ry     beta= 0.40
     Davidson diagonalization with overlap
     ethr =  3.34E-04,  avg # of iterations =  2.0

     negative rho (up, down):  1.904E-01 0.000E+00

     total cpu time spent up to now is      609.7 secs

     total energy              =    -861.72850215 Ry
     Harris-Foulkes estimate   =    -861.65697067 Ry
     estimated scf accuracy    <       1.90567867 Ry

     iteration # 95     ecut=    80.00 Ry     beta= 0.40
     Davidson diagonalization with overlap
     ethr =  3.34E-04,  avg # of iterations =  1.0

     negative rho (up, down):  6.214E-01 0.000E+00

     total cpu time spent up to now is      613.9 secs

     total energy              =    -860.46206981 Ry
     Harris-Foulkes estimate   =    -861.72867137 Ry
     estimated scf accuracy    <       1.99988479 Ry

     iteration # 96     ecut=    80.00 Ry     beta= 0.40
     Davidson diagonalization with overlap
     ethr =  3.34E-04,  avg # of iterations =  4.0

     negative rho (up, down):  8.228E-01 0.000E+00

     total cpu time spent up to now is      620.0 secs

     total energy              =    -864.17745655 Ry
     Harris-Foulkes estimate   =    -863.20292494 Ry
     estimated scf accuracy    <       5.92300664 Ry

     iteration # 97     ecut=    80.00 Ry     beta= 0.40
     Davidson diagonalization with overlap
     ethr =  3.34E-04,  avg # of iterations =  4.0

     negative rho (up, down):  7.323E-01 0.000E+00

     total cpu time spent up to now is      625.7 secs

     total energy              =    -863.71555911 Ry
     Harris-Foulkes estimate   =    -864.18965263 Ry
     estimated scf accuracy    <       7.59062664 Ry

     iteration # 98     ecut=    80.00 Ry     beta= 0.40
     Davidson diagonalization with overlap
     ethr =  3.34E-04,  avg # of iterations =  2.0

     negative rho (up, down):  1.198E+00 0.000E+00

     total cpu time spent up to now is      630.6 secs

     total energy              =    -865.67574435 Ry
     Harris-Foulkes estimate   =    -863.71949371 Ry
     estimated scf accuracy    <       6.79866612 Ry

     iteration # 99     ecut=    80.00 Ry     beta= 0.40
     Davidson diagonalization with overlap
     ethr =  3.34E-04,  avg # of iterations =  4.0

     negative rho (up, down):  1.155E+00 0.000E+00

     total cpu time spent up to now is      637.8 secs

     total energy              =    -865.79543014 Ry
     Harris-Foulkes estimate   =    -866.23301714 Ry
     estimated scf accuracy    <      16.08684348 Ry

     iteration #100     ecut=    80.00 Ry     beta= 0.40
     Davidson diagonalization with overlap
     ethr =  3.34E-04,  avg # of iterations =  1.0

     negative rho (up, down):  1.196E+00 0.000E+00

     total cpu time spent up to now is      641.9 secs

     total energy              =    -866.07020675 Ry
     Harris-Foulkes estimate   =    -865.79589872 Ry
     estimated scf accuracy    <      15.35497696 Ry

     iteration #101     ecut=    80.00 Ry     beta= 0.40
     Davidson diagonalization with overlap
     ethr =  3.34E-04,  avg # of iterations =  1.0

     negative rho (up, down):  8.198E-01 0.000E+00

     total cpu time spent up to now is      646.1 secs

     total energy              =    -865.07617931 Ry
     Harris-Foulkes estimate   =    -866.07051763 Ry
     estimated scf accuracy    <      15.88437157 Ry

     iteration #102     ecut=    80.00 Ry     beta= 0.40
     Davidson diagonalization with overlap
     ethr =  3.34E-04,  avg # of iterations =  4.0

     negative rho (up, down):  8.959E-01 0.000E+00

     total cpu time spent up to now is      652.4 secs

     total energy              =    -866.85932615 Ry
     Harris-Foulkes estimate   =    -865.14329225 Ry
     estimated scf accuracy    <      12.72051015 Ry

     iteration #103     ecut=    80.00 Ry     beta= 0.40
     Davidson diagonalization with overlap
     ethr =  3.34E-04,  avg # of iterations =  2.0

     negative rho (up, down):  4.815E-01 0.000E+00

     total cpu time spent up to now is      657.9 secs

     total energy              =    -864.62191101 Ry
     Harris-Foulkes estimate   =    -866.86323422 Ry
     estimated scf accuracy    <      14.95423242 Ry

     iteration #104     ecut=    80.00 Ry     beta= 0.40
     Davidson diagonalization with overlap
     ethr =  3.34E-04,  avg # of iterations =  4.0

     negative rho (up, down):  6.120E-02 0.000E+00

     total cpu time spent up to now is      664.4 secs

     total energy              =    -861.39526400 Ry
     Harris-Foulkes estimate   =    -864.73162223 Ry
     estimated scf accuracy    <      11.39534401 Ry

     iteration #105     ecut=    80.00 Ry     beta= 0.40
     Davidson diagonalization with overlap
     ethr =  3.34E-04,  avg # of iterations =  4.0

     negative rho (up, down):  2.397E-01 0.000E+00

     total cpu time spent up to now is      671.2 secs

     total energy              =    -862.50670411 Ry
     Harris-Foulkes estimate   =    -866.81101253 Ry
     estimated scf accuracy    <      11.24596082 Ry

     iteration #106     ecut=    80.00 Ry     beta= 0.40
     Davidson diagonalization with overlap
     ethr =  3.34E-04,  avg # of iterations =  4.0

     negative rho (up, down):  2.464E-01 0.000E+00

     total cpu time spent up to now is      677.4 secs

     total energy              =    -862.80581769 Ry
     Harris-Foulkes estimate   =    -863.32868017 Ry
     estimated scf accuracy    <       7.96877387 Ry

     iteration #107     ecut=    80.00 Ry     beta= 0.40
     Davidson diagonalization with overlap
     ethr =  3.34E-04,  avg # of iterations =  1.0

     negative rho (up, down):  1.119E+00 0.000E+00

     total cpu time spent up to now is      681.6 secs

     total energy              =    -866.88963933 Ry
     Harris-Foulkes estimate   =    -862.80678249 Ry
     estimated scf accuracy    <       7.32099291 Ry

     iteration #108     ecut=    80.00 Ry     beta= 0.40
     Davidson diagonalization with overlap
     ethr =  3.34E-04,  avg # of iterations =  4.7

     negative rho (up, down):  3.421E-01 0.000E+00

     total cpu time spent up to now is      689.2 secs

     total energy              =    -863.78738310 Ry
     Harris-Foulkes estimate   =    -870.08857819 Ry
     estimated scf accuracy    <      19.95413187 Ry

     iteration #109     ecut=    80.00 Ry     beta= 0.40
     Davidson diagonalization with overlap
     ethr =  3.34E-04,  avg # of iterations =  4.0

     negative rho (up, down):  2.592E+00 0.000E+00

     total cpu time spent up to now is      696.2 secs

     total energy              =    -876.72391909 Ry
     Harris-Foulkes estimate   =    -864.07216911 Ry
     estimated scf accuracy    <      10.73183620 Ry

     iteration #110     ecut=    80.00 Ry     beta= 0.40
     Davidson diagonalization with overlap
     ethr =  3.34E-04,  avg # of iterations =  8.1

     negative rho (up, down):  1.071E-01 0.000E+00

     total cpu time spent up to now is      707.4 secs

     total energy              =    -818.59988522 Ry
     Harris-Foulkes estimate   =    -896.07267758 Ry
     estimated scf accuracy    <     188.61926124 Ry

     iteration #111     ecut=    80.00 Ry     beta= 0.40
     Davidson diagonalization with overlap
     ethr =  3.34E-04,  avg # of iterations =  6.0

     negative rho (up, down):  2.574E-02 0.000E+00

     total cpu time spent up to now is      716.5 secs

     total energy              =    -852.46102389 Ry
     Harris-Foulkes estimate   =    -863.09648810 Ry
     estimated scf accuracy    <      49.26026278 Ry

     iteration #112     ecut=    80.00 Ry     beta= 0.40
     Davidson diagonalization with overlap
     ethr =  3.34E-04,  avg # of iterations =  4.0

     negative rho (up, down):  6.497E-02 0.000E+00

     total cpu time spent up to now is      723.9 secs

     total energy              =    -862.53685993 Ry
     Harris-Foulkes estimate   =    -864.32111331 Ry
     estimated scf accuracy    <       7.58891054 Ry

     iteration #113     ecut=    80.00 Ry     beta= 0.40
     Davidson diagonalization with overlap
     ethr =  3.34E-04,  avg # of iterations =  2.0

     negative rho (up, down):  1.458E-01 0.000E+00

     total cpu time spent up to now is      729.0 secs

     total energy              =    -861.78608025 Ry
     Harris-Foulkes estimate   =    -862.60592662 Ry
     estimated scf accuracy    <       3.20531075 Ry

     iteration #114     ecut=    80.00 Ry     beta= 0.40
     Davidson diagonalization with overlap
     ethr =  3.34E-04,  avg # of iterations =  2.0

     negative rho (up, down):  9.459E-01 0.000E+00

     total cpu time spent up to now is      734.1 secs

     total energy              =    -860.02124673 Ry
     Harris-Foulkes estimate   =    -861.79929351 Ry
     estimated scf accuracy    <       3.33985764 Ry

     iteration #115     ecut=    80.00 Ry     beta= 0.40
     Davidson diagonalization with overlap
     ethr =  3.34E-04,  avg # of iterations =  4.1

     negative rho (up, down):  3.705E-01 0.000E+00

     total cpu time spent up to now is      740.6 secs

     total energy              =    -862.01647869 Ry
     Harris-Foulkes estimate   =    -864.81981909 Ry
     estimated scf accuracy    <       8.72900077 Ry

     iteration #116     ecut=    80.00 Ry     beta= 0.40
     Davidson diagonalization with overlap
     ethr =  3.34E-04,  avg # of iterations =  4.0

     negative rho (up, down):  3.160E-01 0.000E+00

     total cpu time spent up to now is      746.8 secs

     total energy              =    -861.85950807 Ry
     Harris-Foulkes estimate   =    -862.10756128 Ry
     estimated scf accuracy    <       4.21532545 Ry

     iteration #117     ecut=    80.00 Ry     beta= 0.40
     Davidson diagonalization with overlap
     ethr =  3.34E-04,  avg # of iterations =  1.0

     negative rho (up, down):  2.657E-01 0.000E+00

     total cpu time spent up to now is      750.9 secs

     total energy              =    -861.62800855 Ry
     Harris-Foulkes estimate   =    -861.86027248 Ry
     estimated scf accuracy    <       3.86258050 Ry

     iteration #118     ecut=    80.00 Ry     beta= 0.40
     Davidson diagonalization with overlap
     ethr =  3.34E-04,  avg # of iterations =  2.0

     negative rho (up, down):  3.981E-01 0.000E+00

     total cpu time spent up to now is      755.5 secs

     total energy              =    -862.27264610 Ry
     Harris-Foulkes estimate   =    -861.63027091 Ry
     estimated scf accuracy    <       3.60265484 Ry

     iteration #119     ecut=    80.00 Ry     beta= 0.40
     Davidson diagonalization with overlap
     ethr =  3.34E-04,  avg # of iterations =  2.0

     negative rho (up, down):  4.331E-01 0.000E+00

     total cpu time spent up to now is      760.4 secs

     total energy              =    -862.41940402 Ry
     Harris-Foulkes estimate   =    -862.27620442 Ry
     estimated scf accuracy    <       4.52700479 Ry

     iteration #120     ecut=    80.00 Ry     beta= 0.40
     Davidson diagonalization with overlap
     ethr =  3.34E-04,  avg # of iterations =  1.0

     negative rho (up, down):  6.803E-01 0.000E+00

     total cpu time spent up to now is      764.5 secs

     total energy              =    -863.55639050 Ry
     Harris-Foulkes estimate   =    -862.41967787 Ry
     estimated scf accuracy    <       4.73788605 Ry

     iteration #121     ecut=    80.00 Ry     beta= 0.40
     Davidson diagonalization with overlap
     ethr =  3.34E-04,  avg # of iterations =  3.0

     negative rho (up, down):  4.162E-01 0.000E+00

     total cpu time spent up to now is      770.3 secs

     total energy              =    -862.07563263 Ry
     Harris-Foulkes estimate   =    -863.57215888 Ry
     estimated scf accuracy    <       6.61547681 Ry

     iteration #122     ecut=    80.00 Ry     beta= 0.40
     Davidson diagonalization with overlap
     ethr =  3.34E-04,  avg # of iterations =  3.0

     negative rho (up, down):  2.212E-01 0.000E+00

     total cpu time spent up to now is      776.1 secs

     total energy              =    -861.10402886 Ry
     Harris-Foulkes estimate   =    -862.10271654 Ry
     estimated scf accuracy    <       4.26716858 Ry

     iteration #123     ecut=    80.00 Ry     beta= 0.40
     Davidson diagonalization with overlap
     ethr =  3.34E-04,  avg # of iterations =  2.0

     negative rho (up, down):  4.464E-01 0.000E+00

     total cpu time spent up to now is      782.0 secs

     total energy              =    -860.72855766 Ry
     Harris-Foulkes estimate   =    -861.76937479 Ry
     estimated scf accuracy    <       2.01554997 Ry

     iteration #124     ecut=    80.00 Ry     beta= 0.40
     Davidson diagonalization with overlap
     ethr =  3.34E-04,  avg # of iterations =  2.0

     negative rho (up, down):  2.931E-01 0.000E+00

     total cpu time spent up to now is      787.6 secs

     total energy              =    -860.35145201 Ry
     Harris-Foulkes estimate   =    -862.42948985 Ry
     estimated scf accuracy    <       9.05869520 Ry

     iteration #125     ecut=    80.00 Ry     beta= 0.40
     Davidson diagonalization with overlap
     ethr =  3.34E-04,  avg # of iterations =  2.0

     negative rho (up, down):  2.751E-01 0.000E+00

     total cpu time spent up to now is      792.9 secs

     total energy              =    -861.43538366 Ry
     Harris-Foulkes estimate   =    -861.52270290 Ry
     estimated scf accuracy    <       3.43484908 Ry

     iteration #126     ecut=    80.00 Ry     beta= 0.40
     Davidson diagonalization with overlap
     ethr =  3.34E-04,  avg # of iterations =  1.0

     negative rho (up, down):  2.847E-01 0.000E+00

     total cpu time spent up to now is      797.2 secs

     total energy              =    -861.48391742 Ry
     Harris-Foulkes estimate   =    -861.43457040 Ry
     estimated scf accuracy    <       3.40852582 Ry

     iteration #127     ecut=    80.00 Ry     beta= 0.40
     Davidson diagonalization with overlap
     ethr =  3.34E-04,  avg # of iterations =  1.0

     negative rho (up, down):  2.684E-01 0.000E+00

     total cpu time spent up to now is      801.4 secs

     total energy              =    -861.39599799 Ry
     Harris-Foulkes estimate   =    -861.48453529 Ry
     estimated scf accuracy    <       3.38240081 Ry

     iteration #128     ecut=    80.00 Ry     beta= 0.40
     Davidson diagonalization with overlap
     ethr =  3.34E-04,  avg # of iterations =  1.0

     negative rho (up, down):  3.385E-01 0.000E+00

     total cpu time spent up to now is      805.4 secs

     total energy              =    -861.41598498 Ry
     Harris-Foulkes estimate   =    -861.40689786 Ry
     estimated scf accuracy    <       0.11008916 Ry

     iteration #129     ecut=    80.00 Ry     beta= 0.40
     Davidson diagonalization with overlap
     ethr =  3.34E-04,  avg # of iterations =  2.0

     negative rho (up, down):  2.867E-01 0.000E+00

     total cpu time spent up to now is      809.9 secs

     total energy              =    -861.49748005 Ry
     Harris-Foulkes estimate   =    -861.79189793 Ry
     estimated scf accuracy    <       3.79999228 Ry

     iteration #130     ecut=    80.00 Ry     beta= 0.40
     Davidson diagonalization with overlap
     ethr =  3.34E-04,  avg # of iterations =  1.0

     negative rho (up, down):  3.035E-01 0.000E+00

     total cpu time spent up to now is      814.0 secs

     total energy              =    -861.58973276 Ry
     Harris-Foulkes estimate   =    -861.49822676 Ry
     estimated scf accuracy    <       3.40050607 Ry

     iteration #131     ecut=    80.00 Ry     beta= 0.40
     Davidson diagonalization with overlap
     ethr =  3.34E-04,  avg # of iterations =  1.0

     negative rho (up, down):  3.008E-01 0.000E+00

     total cpu time spent up to now is      817.9 secs

     total energy              =    -861.58223127 Ry
     Harris-Foulkes estimate   =    -861.58981967 Ry
     estimated scf accuracy    <       3.52180619 Ry

     iteration #132     ecut=    80.00 Ry     beta= 0.40
     Davidson diagonalization with overlap
     ethr =  3.34E-04,  avg # of iterations =  1.0

     negative rho (up, down):  3.149E-01 0.000E+00

     total cpu time spent up to now is      822.1 secs

     total energy              =    -861.66658853 Ry
     Harris-Foulkes estimate   =    -861.58224804 Ry
     estimated scf accuracy    <       3.51630005 Ry

     iteration #133     ecut=    80.00 Ry     beta= 0.40
     Davidson diagonalization with overlap
     ethr =  3.34E-04,  avg # of iterations =  1.0

     negative rho (up, down):  3.194E-01 0.000E+00

     total cpu time spent up to now is      826.1 secs

     total energy              =    -861.83092067 Ry
     Harris-Foulkes estimate   =    -861.66668687 Ry
     estimated scf accuracy    <       3.62484664 Ry

     iteration #134     ecut=    80.00 Ry     beta= 0.40
     Davidson diagonalization with overlap
     ethr =  3.34E-04,  avg # of iterations =  2.0

     negative rho (up, down):  3.087E-01 0.000E+00

     total cpu time spent up to now is      831.1 secs

     total energy              =    -860.49530091 Ry
     Harris-Foulkes estimate   =    -861.92743959 Ry
     estimated scf accuracy    <       8.16883581 Ry

     iteration #135     ecut=    80.00 Ry     beta= 0.40
     Davidson diagonalization with overlap
     ethr =  3.34E-04,  avg # of iterations =  2.0

     negative rho (up, down):  3.122E-01 0.000E+00

     total cpu time spent up to now is      836.1 secs

     total energy              =    -861.65141838 Ry
     Harris-Foulkes estimate   =    -861.63036464 Ry
     estimated scf accuracy    <       3.57498663 Ry

     iteration #136     ecut=    80.00 Ry     beta= 0.40
     Davidson diagonalization with overlap
     ethr =  3.34E-04,  avg # of iterations =  1.0

     negative rho (up, down):  3.083E-01 0.000E+00

     total cpu time spent up to now is      840.3 secs

     total energy              =    -861.61243391 Ry
     Harris-Foulkes estimate   =    -861.65154449 Ry
     estimated scf accuracy    <       3.60348120 Ry

     iteration #137     ecut=    80.00 Ry     beta= 0.40
     Davidson diagonalization with overlap
     ethr =  3.34E-04,  avg # of iterations =  1.0

     negative rho (up, down):  2.985E-03 0.000E+00

     total cpu time spent up to now is      844.5 secs

     total energy              =    -858.80333115 Ry
     Harris-Foulkes estimate   =    -861.61254230 Ry
     estimated scf accuracy    <       3.56358208 Ry

     iteration #138     ecut=    80.00 Ry     beta= 0.40
     Davidson diagonalization with overlap
     ethr =  3.34E-04,  avg # of iterations =  4.0

     negative rho (up, down):  7.582E-02 0.000E+00

     total cpu time spent up to now is      851.4 secs

     total energy              =    -862.73639225 Ry
     Harris-Foulkes estimate   =    -866.10714730 Ry
     estimated scf accuracy    <      10.23273214 Ry

     iteration #139     ecut=    80.00 Ry     beta= 0.40
     Davidson diagonalization with overlap
     ethr =  3.34E-04,  avg # of iterations =  3.0

     negative rho (up, down):  1.390E-01 0.000E+00

     total cpu time spent up to now is      857.1 secs

     total energy              =    -861.71058008 Ry
     Harris-Foulkes estimate   =    -862.84390640 Ry
     estimated scf accuracy    <       5.56386989 Ry

     iteration #140     ecut=    80.00 Ry     beta= 0.40
     Davidson diagonalization with overlap
     ethr =  3.34E-04,  avg # of iterations =  2.0

     negative rho (up, down):  2.032E-01 0.000E+00

     total cpu time spent up to now is      862.9 secs

     total energy              =    -861.63119530 Ry
     Harris-Foulkes estimate   =    -862.13739455 Ry
     estimated scf accuracy    <       2.56026509 Ry

     iteration #141     ecut=    80.00 Ry     beta= 0.40
     Davidson diagonalization with overlap
     ethr =  3.34E-04,  avg # of iterations =  2.0

     negative rho (up, down):  2.662E-01 0.000E+00

     total cpu time spent up to now is      867.8 secs

     total energy              =    -861.36353756 Ry
     Harris-Foulkes estimate   =    -861.63632897 Ry
     estimated scf accuracy    <       1.85946878 Ry

     iteration #142     ecut=    80.00 Ry     beta= 0.40
     Davidson diagonalization with overlap
     ethr =  3.34E-04,  avg # of iterations =  2.0

     negative rho (up, down):  2.718E-01 0.000E+00

     total cpu time spent up to now is      872.5 secs

     total energy              =    -861.43996316 Ry
     Harris-Foulkes estimate   =    -861.41190050 Ry
     estimated scf accuracy    <       3.47678859 Ry

     iteration #143     ecut=    80.00 Ry     beta= 0.40
     Davidson diagonalization with overlap
     ethr =  3.34E-04,  avg # of iterations =  1.0

     negative rho (up, down):  2.615E-01 0.000E+00

     total cpu time spent up to now is      876.6 secs

     total energy              =    -861.39842889 Ry
     Harris-Foulkes estimate   =    -861.44024837 Ry
     estimated scf accuracy    <       3.36137940 Ry

     iteration #144     ecut=    80.00 Ry     beta= 0.40
     Davidson diagonalization with overlap
     ethr =  3.34E-04,  avg # of iterations =  1.0

     negative rho (up, down):  2.264E-01 0.000E+00

     total cpu time spent up to now is      880.6 secs

     total energy              =    -861.24051552 Ry
     Harris-Foulkes estimate   =    -861.39893937 Ry
     estimated scf accuracy    <       1.87567359 Ry

     iteration #145     ecut=    80.00 Ry     beta= 0.40
     Davidson diagonalization with overlap
     ethr =  3.34E-04,  avg # of iterations =  1.0

     negative rho (up, down):  1.701E-01 0.000E+00

     total cpu time spent up to now is      884.7 secs

     total energy              =    -861.75571373 Ry
     Harris-Foulkes estimate   =    -861.56726006 Ry
     estimated scf accuracy    <       1.73699938 Ry

     iteration #146     ecut=    80.00 Ry     beta= 0.40
     Davidson diagonalization with overlap
     ethr =  3.34E-04,  avg # of iterations =  2.0

     negative rho (up, down):  1.985E-01 0.000E+00

     total cpu time spent up to now is      889.5 secs

     total energy              =    -861.49272951 Ry
     Harris-Foulkes estimate   =    -861.75900134 Ry
     estimated scf accuracy    <       2.04586322 Ry

     iteration #147     ecut=    80.00 Ry     beta= 0.40
     Davidson diagonalization with overlap
     ethr =  3.34E-04,  avg # of iterations =  1.0

     negative rho (up, down):  2.675E-01 0.000E+00

     total cpu time spent up to now is      893.7 secs

     total energy              =    -861.33131734 Ry
     Harris-Foulkes estimate   =    -861.49400405 Ry
     estimated scf accuracy    <       1.71824075 Ry

     iteration #148     ecut=    80.00 Ry     beta= 0.40
     Davidson diagonalization with overlap
     ethr =  3.34E-04,  avg # of iterations =  2.0

     negative rho (up, down):  1.288E-01 0.000E+00

     total cpu time spent up to now is      898.7 secs

     total energy              =    -860.55534469 Ry
     Harris-Foulkes estimate   =    -861.42608908 Ry
     estimated scf accuracy    <       3.33936059 Ry

     iteration #149     ecut=    80.00 Ry     beta= 0.40
     Davidson diagonalization with overlap
     ethr =  3.34E-04,  avg # of iterations =  2.0

     negative rho (up, down):  2.128E-01 0.000E+00

     total cpu time spent up to now is      903.8 secs

     total energy              =    -861.11675667 Ry
     Harris-Foulkes estimate   =    -862.03974945 Ry
     estimated scf accuracy    <       4.38881491 Ry

     iteration #150     ecut=    80.00 Ry     beta= 0.40
     Davidson diagonalization with overlap
     ethr =  3.34E-04,  avg # of iterations =  2.0

     negative rho (up, down):  2.085E-01 0.000E+00

     total cpu time spent up to now is      908.8 secs

     total energy              =    -861.60402362 Ry
     Harris-Foulkes estimate   =    -861.58608202 Ry
     estimated scf accuracy    <       1.79267314 Ry

     iteration #151     ecut=    80.00 Ry     beta= 0.40
     Davidson diagonalization with overlap
     ethr =  3.34E-04,  avg # of iterations =  1.0

     negative rho (up, down):  2.365E-01 0.000E+00

     total cpu time spent up to now is      912.8 secs

     total energy              =    -861.53355603 Ry
     Harris-Foulkes estimate   =    -861.60418281 Ry
     estimated scf accuracy    <       1.81671717 Ry

     iteration #152     ecut=    80.00 Ry     beta= 0.40
     Davidson diagonalization with overlap
     ethr =  3.34E-04,  avg # of iterations =  1.0

     negative rho (up, down):  2.429E-01 0.000E+00

     total cpu time spent up to now is      916.9 secs

     total energy              =    -861.47908720 Ry
     Harris-Foulkes estimate   =    -861.53427281 Ry
     estimated scf accuracy    <       1.70158827 Ry

     iteration #153     ecut=    80.00 Ry     beta= 0.40
[...]
     Davidson diagonalization with overlap
     ethr =  9.92E-05,  avg # of iterations =  1.0

     negative rho (up, down):  2.484E-01 0.000E+00

     total cpu time spent up to now is     1839.7 secs

     total energy              =    -861.34893003 Ry
     Harris-Foulkes estimate   =    -861.33733000 Ry
     estimated scf accuracy    <       0.02091308 Ry

     iteration #362     ecut=    80.00 Ry     beta= 0.40
     Davidson diagonalization with overlap
     ethr =  9.92E-05,  avg # of iterations =  1.0

     negative rho (up, down):  2.500E-01 0.000E+00

     total cpu time spent up to now is     1844.0 secs

     total energy              =    -861.35469116 Ry
     Harris-Foulkes estimate   =    -861.34900678 Ry
     estimated scf accuracy    <       0.03543812 Ry

     iteration #363     ecut=    80.00 Ry     beta= 0.40
     Davidson diagonalization with overlap
     ethr =  9.92E-05,  avg # of iterations =  1.0

     negative rho (up, down):  2.530E-01 0.000E+00

     total cpu time spent up to now is     1848.2 secs

     total energy              =    -861.36642035 Ry
     Harris-Foulkes estimate   =    -861.35473636 Ry
     estimated scf accuracy    <       0.04222811 Ry

     iteration #364     ecut=    80.00 Ry     beta= 0.40
     Davidson diagonalization with overlap
     ethr =  9.92E-05,  avg # of iterations =  1.0

     negative rho (up, down):  2.580E-01 0.000E+00

     total cpu time spent up to now is     1852.2 secs

     total energy              =    -861.39310560 Ry
     Harris-Foulkes estimate   =    -861.36648670 Ry
     estimated scf accuracy    <       0.05664301 Ry

     iteration #365     ecut=    80.00 Ry     beta= 0.40
     Davidson diagonalization with overlap
     ethr =  9.92E-05,  avg # of iterations =  1.0

     negative rho (up, down):  2.411E-01 0.000E+00

     total cpu time spent up to now is     1856.4 secs

     total energy              =    -861.32740753 Ry
     Harris-Foulkes estimate   =    -861.39337644 Ry
     estimated scf accuracy    <       0.09456485 Ry

     iteration #366     ecut=    80.00 Ry     beta= 0.40
     Davidson diagonalization with overlap
     ethr =  9.92E-05,  avg # of iterations =  2.0

     negative rho (up, down):  2.332E-01 0.000E+00

     total cpu time spent up to now is     1861.7 secs

     total energy              =    -861.32048474 Ry
     Harris-Foulkes estimate   =    -861.32922185 Ry
     estimated scf accuracy    <       0.01119848 Ry

     iteration #367     ecut=    80.00 Ry     beta= 0.40
     Davidson diagonalization with overlap
     ethr =  9.92E-05,  avg # of iterations =  2.0

     negative rho (up, down):  2.494E-01 0.000E+00

     total cpu time spent up to now is     1866.0 secs

     total energy              =    -860.67520733 Ry
     Harris-Foulkes estimate   =    -861.41211926 Ry
     estimated scf accuracy    <       5.95769257 Ry

     iteration #368     ecut=    80.00 Ry     beta= 0.40
     Davidson diagonalization with overlap
     ethr =  9.92E-05,  avg # of iterations =  3.0

     negative rho (up, down):  2.488E-01 0.000E+00

     total cpu time spent up to now is     1871.6 secs

     total energy              =    -861.34973099 Ry
     Harris-Foulkes estimate   =    -861.35232841 Ry
     estimated scf accuracy    <       0.03957752 Ry

     iteration #369     ecut=    80.00 Ry     beta= 0.40
     Davidson diagonalization with overlap
     ethr =  9.92E-05,  avg # of iterations =  1.0

     negative rho (up, down):  2.448E-01 0.000E+00

     total cpu time spent up to now is     1875.8 secs

     total energy              =    -861.33759081 Ry
     Harris-Foulkes estimate   =    -861.34976057 Ry
     estimated scf accuracy    <       0.03725385 Ry

     iteration #370     ecut=    80.00 Ry     beta= 0.40
     Davidson diagonalization with overlap
     ethr =  9.92E-05,  avg # of iterations =  1.0

     negative rho (up, down):  2.498E-01 0.000E+00

     total cpu time spent up to now is     1879.9 secs

     total energy              =    -861.35349714 Ry
     Harris-Foulkes estimate   =    -861.33768055 Ry
     estimated scf accuracy    <       0.02182732 Ry

     iteration #371     ecut=    80.00 Ry     beta= 0.40
     Davidson diagonalization with overlap
     ethr =  9.92E-05,  avg # of iterations =  1.0

     negative rho (up, down):  2.493E-01 0.000E+00

     total cpu time spent up to now is     1884.0 secs

     total energy              =    -861.35155408 Ry
     Harris-Foulkes estimate   =    -861.35362514 Ry
     estimated scf accuracy    <       0.04083752 Ry

     iteration #372     ecut=    80.00 Ry     beta= 0.40
     Davidson diagonalization with overlap
     ethr =  9.92E-05,  avg # of iterations =  1.0

     negative rho (up, down):  2.471E-01 0.000E+00

     total cpu time spent up to now is     1888.3 secs

     total energy              =    -861.34435834 Ry
     Harris-Foulkes estimate   =    -861.35156237 Ry
     estimated scf accuracy    <       0.03935207 Ry

     iteration #373     ecut=    80.00 Ry     beta= 0.40
     Davidson diagonalization with overlap
     ethr =  9.92E-05,  avg # of iterations =  1.0

     negative rho (up, down):  2.443E-01 0.000E+00

     total cpu time spent up to now is     1892.4 secs

     total energy              =    -861.33663302 Ry
     Harris-Foulkes estimate   =    -861.34437950 Ry
     estimated scf accuracy    <       0.03016594 Ry

     iteration #374     ecut=    80.00 Ry     beta= 0.40
     Davidson diagonalization with overlap
     ethr =  9.92E-05,  avg # of iterations =  1.0

     negative rho (up, down):  2.562E-01 0.000E+00

     total cpu time spent up to now is     1896.5 secs

     total energy              =    -861.37783789 Ry
     Harris-Foulkes estimate   =    -861.33668522 Ry
     estimated scf accuracy    <       0.01999209 Ry

     iteration #375     ecut=    80.00 Ry     beta= 0.40
     Davidson diagonalization with overlap
     ethr =  9.92E-05,  avg # of iterations =  2.0

     negative rho (up, down):  2.528E-01 0.000E+00

     total cpu time spent up to now is     1900.8 secs

     total energy              =    -861.36399992 Ry
     Harris-Foulkes estimate   =    -861.37860036 Ry
     estimated scf accuracy    <       0.07306189 Ry

     iteration #376     ecut=    80.00 Ry     beta= 0.40
     Davidson diagonalization with overlap
     ethr =  9.92E-05,  avg # of iterations =  1.0

     negative rho (up, down):  2.329E-01 0.000E+00

     total cpu time spent up to now is     1904.9 secs

     total energy              =    -861.31818995 Ry
     Harris-Foulkes estimate   =    -861.36407730 Ry
     estimated scf accuracy    <       0.05581672 Ry

     iteration #377     ecut=    80.00 Ry     beta= 0.40
     Davidson diagonalization with overlap
     ethr =  9.92E-05,  avg # of iterations =  3.0

     negative rho (up, down):  2.508E-01 0.000E+00

     total cpu time spent up to now is     1910.9 secs

     total energy              =    -860.63243485 Ry
     Harris-Foulkes estimate   =    -861.41247068 Ry
     estimated scf accuracy    <       5.99265262 Ry

     iteration #378     ecut=    80.00 Ry     beta= 0.40
     Davidson diagonalization with overlap
     ethr =  9.92E-05,  avg # of iterations =  3.0

     negative rho (up, down):  2.469E-01 0.000E+00

     total cpu time spent up to now is     1916.8 secs

     total energy              =    -861.34332294 Ry
     Harris-Foulkes estimate   =    -861.35632680 Ry
     estimated scf accuracy    <       0.04624048 Ry

     iteration #379     ecut=    80.00 Ry     beta= 0.40
     Davidson diagonalization with overlap
     ethr =  9.92E-05,  avg # of iterations =  1.0

     negative rho (up, down):  2.469E-01 0.000E+00

     total cpu time spent up to now is     1920.9 secs

     total energy              =    -861.34337580 Ry
     Harris-Foulkes estimate   =    -861.34340910 Ry
     estimated scf accuracy    <       0.02925578 Ry

     iteration #380     ecut=    80.00 Ry     beta= 0.40
     Davidson diagonalization with overlap
     ethr =  9.92E-05,  avg # of iterations =  1.0

     negative rho (up, down):  2.472E-01 0.000E+00

     total cpu time spent up to now is     1924.9 secs

     total energy              =    -861.34452319 Ry
     Harris-Foulkes estimate   =    -861.34338411 Ry
     estimated scf accuracy    <       0.02939007 Ry

     iteration #381     ecut=    80.00 Ry     beta= 0.40
     Davidson diagonalization with overlap
     ethr =  9.92E-05,  avg # of iterations =  1.0

     negative rho (up, down):  2.473E-01 0.000E+00

     total cpu time spent up to now is     1928.9 secs

     total energy              =    -861.34467644 Ry
     Harris-Foulkes estimate   =    -861.34452595 Ry
     estimated scf accuracy    <       0.03050494 Ry

     iteration #382     ecut=    80.00 Ry     beta= 0.40
     Davidson diagonalization with overlap
     ethr =  9.92E-05,  avg # of iterations =  1.0

     negative rho (up, down):  2.482E-01 0.000E+00

     total cpu time spent up to now is     1933.1 secs

     total energy              =    -861.34770148 Ry
     Harris-Foulkes estimate   =    -861.34467763 Ry
     estimated scf accuracy    <       0.03104948 Ry

     iteration #383     ecut=    80.00 Ry     beta= 0.40
     Davidson diagonalization with overlap
     ethr =  9.92E-05,  avg # of iterations =  1.0

     negative rho (up, down):  2.473E-01 0.000E+00

     total cpu time spent up to now is     1937.3 secs

     total energy              =    -861.34511308 Ry
     Harris-Foulkes estimate   =    -861.34770583 Ry
     estimated scf accuracy    <       0.03464703 Ry

     iteration #384     ecut=    80.00 Ry     beta= 0.40
     Davidson diagonalization with overlap
     ethr =  9.92E-05,  avg # of iterations =  1.0

     negative rho (up, down):  2.488E-01 0.000E+00

     total cpu time spent up to now is     1941.5 secs

     total energy              =    -861.34910301 Ry
     Harris-Foulkes estimate   =    -861.34511648 Ry
     estimated scf accuracy    <       0.03095582 Ry

     iteration #385     ecut=    80.00 Ry     beta= 0.40
     Davidson diagonalization with overlap
     ethr =  9.92E-05,  avg # of iterations =  1.0

     negative rho (up, down):  2.440E-01 0.000E+00

     total cpu time spent up to now is     1945.7 secs

     total energy              =    -861.33508765 Ry
     Harris-Foulkes estimate   =    -861.34911215 Ry
     estimated scf accuracy    <       0.03750186 Ry

     iteration #386     ecut=    80.00 Ry     beta= 0.40
     Davidson diagonalization with overlap
     ethr =  9.92E-05,  avg # of iterations =  1.0

     negative rho (up, down):  2.332E-01 0.000E+00

     total cpu time spent up to now is     1949.9 secs

     total energy              =    -861.32009295 Ry
     Harris-Foulkes estimate   =    -861.33520781 Ry
     estimated scf accuracy    <       0.01878181 Ry

     iteration #387     ecut=    80.00 Ry     beta= 0.40
     Davidson diagonalization with overlap
     ethr =  9.92E-05,  avg # of iterations =  2.0

     negative rho (up, down):  2.400E-01 0.000E+00

     total cpu time spent up to now is     1954.2 secs

     total energy              =    -861.07742869 Ry
     Harris-Foulkes estimate   =    -861.41315088 Ry
     estimated scf accuracy    <       5.99226536 Ry

     iteration #388     ecut=    80.00 Ry     beta= 0.40
     Davidson diagonalization with overlap
     ethr =  9.92E-05,  avg # of iterations =  2.0

     negative rho (up, down):  2.422E-01 0.000E+00

     total cpu time spent up to now is     1958.5 secs

     total energy              =    -861.33123850 Ry
     Harris-Foulkes estimate   =    -861.32706238 Ry
     estimated scf accuracy    <       0.00732143 Ry

     iteration #389     ecut=    80.00 Ry     beta= 0.40
     Davidson diagonalization with overlap
     ethr =  8.13E-05,  avg # of iterations =  1.0

     negative rho (up, down):  2.441E-01 0.000E+00

     total cpu time spent up to now is     1962.9 secs

     total energy              =    -861.33565156 Ry
     Harris-Foulkes estimate   =    -861.33129991 Ry
     estimated scf accuracy    <       0.01289008 Ry

     iteration #390     ecut=    80.00 Ry     beta= 0.40
     Davidson diagonalization with overlap
     ethr =  8.13E-05,  avg # of iterations =  1.0

     negative rho (up, down):  2.452E-01 0.000E+00

     total cpu time spent up to now is     1967.0 secs

     total energy              =    -861.33862686 Ry
     Harris-Foulkes estimate   =    -861.33570349 Ry
     estimated scf accuracy    <       0.01874038 Ry

     iteration #391     ecut=    80.00 Ry     beta= 0.40
     Davidson diagonalization with overlap
     ethr =  8.13E-05,  avg # of iterations =  1.0

     negative rho (up, down):  2.461E-01 0.000E+00

     total cpu time spent up to now is     1971.1 secs

     total energy              =    -861.34137780 Ry
     Harris-Foulkes estimate   =    -861.33865955 Ry
     estimated scf accuracy    <       0.02243220 Ry

     iteration #392     ecut=    80.00 Ry     beta= 0.40
     Davidson diagonalization with overlap
     ethr =  8.13E-05,  avg # of iterations =  1.0

     negative rho (up, down):  2.453E-01 0.000E+00

     total cpu time spent up to now is     1975.4 secs

     total energy              =    -861.33906916 Ry
     Harris-Foulkes estimate   =    -861.34140493 Ry
     estimated scf accuracy    <       0.02594941 Ry

     iteration #393     ecut=    80.00 Ry     beta= 0.40
     Davidson diagonalization with overlap
     ethr =  8.13E-05,  avg # of iterations =  1.0

     negative rho (up, down):  2.456E-01 0.000E+00

     total cpu time spent up to now is     1979.5 secs

     total energy              =    -861.33982672 Ry
     Harris-Foulkes estimate   =    -861.33907920 Ry
     estimated scf accuracy    <       0.02302945 Ry

     iteration #394     ecut=    80.00 Ry     beta= 0.40
     Davidson diagonalization with overlap
     ethr =  8.13E-05,  avg # of iterations =  1.0

     negative rho (up, down):  2.477E-01 0.000E+00

     total cpu time spent up to now is     1983.8 secs

     total energy              =    -861.34619637 Ry
     Harris-Foulkes estimate   =    -861.33983123 Ry
     estimated scf accuracy    <       0.02398800 Ry

     iteration #395     ecut=    80.00 Ry     beta= 0.40
     Davidson diagonalization with overlap
     ethr =  8.13E-05,  avg # of iterations =  1.0

     negative rho (up, down):  2.467E-01 0.000E+00

     total cpu time spent up to now is     1987.9 secs

     total energy              =    -861.34379945 Ry
     Harris-Foulkes estimate   =    -861.34622991 Ry
     estimated scf accuracy    <       0.03223378 Ry

     iteration #396     ecut=    80.00 Ry     beta= 0.40
     Davidson diagonalization with overlap
     ethr =  8.13E-05,  avg # of iterations =  1.0

     negative rho (up, down):  2.329E-01 0.000E+00

     total cpu time spent up to now is     1992.0 secs

     total energy              =    -861.31973943 Ry
     Harris-Foulkes estimate   =    -861.34380820 Ry
     estimated scf accuracy    <       0.02881864 Ry

     iteration #397     ecut=    80.00 Ry     beta= 0.40
     Davidson diagonalization with overlap
     ethr =  8.13E-05,  avg # of iterations =  2.0

     negative rho (up, down):  2.546E-01 0.000E+00

     total cpu time spent up to now is     1997.4 secs

     total energy              =    -860.48091779 Ry
     Harris-Foulkes estimate   =    -861.41252015 Ry
     estimated scf accuracy    <       5.99549188 Ry

     iteration #398     ecut=    80.00 Ry     beta= 0.40
     Davidson diagonalization with overlap
     ethr =  8.13E-05,  avg # of iterations =  3.0

     negative rho (up, down):  2.501E-01 0.000E+00

     total cpu time spent up to now is     2003.3 secs

     total energy              =    -861.35255135 Ry
     Harris-Foulkes estimate   =    -861.37258535 Ry
     estimated scf accuracy    <       0.06480491 Ry

     iteration #399     ecut=    80.00 Ry     beta= 0.40
     Davidson diagonalization with overlap
     ethr =  8.13E-05,  avg # of iterations =  1.0

     negative rho (up, down):  2.481E-01 0.000E+00

     total cpu time spent up to now is     2007.4 secs

     total energy              =    -861.34661168 Ry
     Harris-Foulkes estimate   =    -861.35268759 Ry
     estimated scf accuracy    <       0.04229458 Ry

     iteration #400     ecut=    80.00 Ry     beta= 0.40
     Davidson diagonalization with overlap
     ethr =  8.13E-05,  avg # of iterations =  1.0

     negative rho (up, down):  2.475E-01 0.000E+00

     total cpu time spent up to now is     2011.6 secs

     total energy              =    -861.34491292 Ry
     Harris-Foulkes estimate   =    -861.34665959 Ry
     estimated scf accuracy    <       0.03404293 Ry

     End of self-consistent calculation

     convergence NOT achieved after 400 iterations: stopping

     init_run     :      1.82s CPU      3.26s WALL (       1 calls)
     electrons    :   1245.14s CPU   2006.01s WALL (       1 calls)

     Called by init_run:
     wfcinit      :      1.40s CPU      2.31s WALL (       1 calls)
     potinit      :      0.07s CPU      0.23s WALL (       1 calls)
     hinit0       :      0.29s CPU      0.59s WALL (       1 calls)

     Called by electrons:
     c_bands      :   1004.02s CPU   1596.93s WALL (     400 calls)
     sum_band     :    192.07s CPU    309.23s WALL (     400 calls)
     v_of_rho     :      6.14s CPU     10.35s WALL (     401 calls)
     newd         :     17.35s CPU     24.13s WALL (     401 calls)
     PAW_pot      :     22.83s CPU     60.55s WALL (     401 calls)
     mix_rho      :      2.20s CPU      3.48s WALL (     400 calls)

     Called by c_bands:
     init_us_2    :     30.79s CPU     39.63s WALL (   88110 calls)
     cegterg      :    935.20s CPU   1487.39s WALL (   44000 calls)

     Called by sum_band:
     sum_band:bec :      0.73s CPU      1.00s WALL (   44000 calls)
     addusdens    :     14.63s CPU     17.16s WALL (     400 calls)

     Called by *egterg:
     h_psi        :    712.48s CPU   1145.64s WALL (  135013 calls)
     s_psi        :     37.17s CPU     47.78s WALL (  135013 calls)
     g_psi        :      1.79s CPU      2.23s WALL (   90903 calls)
     cdiaghg      :     19.51s CPU     26.23s WALL (  134903 calls)

     Called by h_psi:
     h_psi:pot    :    709.13s CPU   1141.31s WALL (  135013 calls)
     h_psi:calbec :     85.65s CPU    153.70s WALL (  135013 calls)
     vloc_psi     :    582.59s CPU    933.57s WALL (  135013 calls)
     add_vuspsi   :     40.33s CPU     53.38s WALL (  135013 calls)

     General routines
     calbec       :    117.99s CPU    208.13s WALL (  179013 calls)
     fft          :      3.52s CPU      8.87s WALL (    4413 calls)
     ffts         :      0.17s CPU      0.28s WALL (     400 calls)
     fftw         :    636.76s CPU   1047.85s WALL ( 2359630 calls)
     davcio       :      0.00s CPU      0.01s WALL (     128 calls)

     Parallel routines
     fft_scatt_xy :     59.12s CPU     78.08s WALL ( 2364443 calls)
     fft_scatt_yz :    349.20s CPU    674.83s WALL ( 2364443 calls)

     PWSCF        : 20m48.79s CPU    33m31.66s WALL


   This run was terminated on:  21: 4: 1  23Oct2018            

=------------------------------------------------------------------------------=
   JOB DONE.
=------------------------------------------------------------------------------=
-------------------------------------------------------
Primary job  terminated normally, but 1 process returned
a non-zero exit code.. Per user-direction, the job has been aborted.
-------------------------------------------------------
--------------------------------------------------------------------------
mpirun.openmpi detected that one or more processes exited with non-zero status, thus causing
the job to be terminated. The first process to do so was:

  Process name: [[28712,1],3]
  Exit code:    2
--------------------------------------------------------------------------
