
     Program PWSCF v.6.3MaX starts on 24Oct2018 at 12:38:35 

     This program is part of the open-source Quantum ESPRESSO suite
     for quantum simulation of materials; please cite
         "P. Giannozzi et al., J. Phys.:Condens. Matter 21 395502 (2009);
         "P. Giannozzi et al., J. Phys.:Condens. Matter 29 465901 (2017);
          URL http://www.quantum-espresso.org", 
     in publications or presentations arising from this work. More details at
     http://www.quantum-espresso.org/quote

     Parallel version (MPI), running on     8 processors

     MPI processes distributed on     1 nodes
     R & G space division:  proc/nbgrp/npool/nimage =       8
     Waiting for input...
     Reading input from standard input
Warning: card &CELL ignored
Warning: card                CELL_DYNAMICS = 'BFGS' , ignored
Warning: card / ignored

     Current dimensions of program PWSCF are:
     Max number of different atomic species (ntypx) = 10
     Max number of k-points (npk) =  40000
     Max angular momentum in pseudopotentials (lmaxx) =  3
     Message from routine iosys:
     minimal I/O required, wf_collect reset to FALSE
               file N.pbe-n-kjpaw_psl.1.0.0.UPF: wavefunction(s)  2S renormalized
               file Na.pbe-spnl-kjpaw_psl.1.0.0.UPF: wavefunction(s)  2P renormalized

     Subspace diagonalization in iterative solution of the eigenvalue problem:
     a serial algorithm will be used


     Parallelization info
     --------------------
     sticks:   dense  smooth     PW     G-vecs:    dense   smooth      PW
     Min          76      76     24                 1260     1260     237
     Max          77      77     25                 1261     1261     241
     Sum         613     613    199                10081    10081    1917



     bravais-lattice index     =            2
     lattice parameter (alat)  =       7.5000  a.u.
     unit-cell volume          =     105.4688 (a.u.)^3
     number of atoms/cell      =            3
     number of atomic types    =            3
     number of electrons       =         9.00
     number of Kohn-Sham states=            9
     kinetic-energy cutoff     =      80.0000  Ry
     charge density cutoff     =     320.0000  Ry
     convergence threshold     =      1.0E-09
     mixing beta               =       0.4000
     number of iterations used =            8  plain     mixing
     Exchange-correlation      = SLA PW PBX PBC ( 1  4  3  4 0 0)

     celldm(1)=   7.500000  celldm(2)=   0.000000  celldm(3)=   0.000000
     celldm(4)=   0.000000  celldm(5)=   0.000000  celldm(6)=   0.000000

     crystal axes: (cart. coord. in units of alat)
               a(1) = (  -0.500000   0.000000   0.500000 )  
               a(2) = (   0.000000   0.500000   0.500000 )  
               a(3) = (  -0.500000   0.500000   0.000000 )  

     reciprocal axes: (cart. coord. in units 2 pi/alat)
               b(1) = ( -1.000000 -1.000000  1.000000 )  
               b(2) = (  1.000000  1.000000  1.000000 )  
               b(3) = ( -1.000000  1.000000 -1.000000 )  


     PseudoPot. # 1 for N  read from file:
     ./ps/N.pbe-n-kjpaw_psl.1.0.0.UPF
     MD5 check sum: 200139db3989ad6e773ddd42f12fc3a8
     Pseudo is Projector augmented-wave + core cor, Zval =  5.0
     Generated using "atomic" code by A. Dal Corso v.6.3
     Shape of augmentation charge: PSQ
     Using radial grid of 1085 points,  4 beta functions with: 
                l(1) =   0
                l(2) =   0
                l(3) =   1
                l(4) =   1
     Q(r) pseudized with 0 coefficients 


     PseudoPot. # 2 for Na read from file:
     ./ps/Na.pbe-spnl-kjpaw_psl.1.0.0.UPF
     MD5 check sum: 09e782c158f17eb2240230c4112357ee
     Pseudo is Projector augmented-wave + core cor, Zval =  9.0
     Generated using "atomic" code by A. Dal Corso v.6.3
     Shape of augmentation charge: PSQ
     Using radial grid of 1121 points,  4 beta functions with: 
                l(1) =   0
                l(2) =   0
                l(3) =   1
                l(4) =   1
     Q(r) pseudized with 0 coefficients 


     PseudoPot. # 3 for Cs read from file:
     ./ps/Cs.pbe-spnl-kjpaw_psl.1.0.0.UPF
     MD5 check sum: f98336d4a4407e24c1ab1e3bc36275e8
     Pseudo is Projector augmented-wave + core cor, Zval = -5.0
     Generated using "atomic" code by A. Dal Corso v.6.2.2
     Shape of augmentation charge: PSQ
     Using radial grid of 1251 points,  6 beta functions with: 
                l(1) =   0
                l(2) =   0
                l(3) =   1
                l(4) =   1
                l(5) =   2
                l(6) =   2
     Q(r) pseudized with 0 coefficients 


     atomic species   valence    mass     pseudopotential
        N              5.00    14.00670     N ( 1.00)
        Na             9.00    22.98977     Na( 1.00)
        Cs            -5.00   132.90545     Cs( 1.00)

     24 Sym. Ops. (no inversion) found



   Cartesian axes

     site n.     atom                  positions (alat units)
         1           N   tau(   1) = (   0.0000000   0.0000000   0.0000000  )
         2           Na  tau(   2) = (  -0.2500000   0.2500000   0.2500000  )
         3           Cs  tau(   3) = (  -0.7500000   0.7500000   0.7500000  )

     number of k points=   110  Methfessel-Paxton smearing, width (Ry)=  0.0200

     Number of k-points >= 100: set verbosity='high' to print them.

     Dense  grid:    10081 G-vectors     FFT dimensions: (  32,  32,  32)

     Estimated max dynamical RAM per process >      12.40 MB

     Estimated total dynamical RAM >      99.17 MB

     Initial potential from superposition of free atoms

     starting charge   22.95298, renormalised to    9.00000
     Starting wfcs are   14 randomized atomic wfcs
     Checking if some PAW data can be deallocated... 

     total cpu time spent up to now is        4.2 secs

     Self-consistent Calculation

     iteration #  1     ecut=    80.00 Ry     beta= 0.40
     Davidson diagonalization with overlap
     ethr =  1.00E-02,  avg # of iterations =  6.3

     negative rho (up, down):  1.099E+00 0.000E+00

     total cpu time spent up to now is        7.5 secs

     total energy              =   -1938.26383099 Ry
     Harris-Foulkes estimate   =   -1993.27785800 Ry
     estimated scf accuracy    <     108.23080332 Ry

     iteration #  2     ecut=    80.00 Ry     beta= 0.40
     Davidson diagonalization with overlap
     ethr =  1.00E-02,  avg # of iterations =  4.5

     negative rho (up, down):  7.967E-01 0.000E+00

     total cpu time spent up to now is        9.7 secs

     total energy              =   -1976.94043849 Ry
     Harris-Foulkes estimate   =   -1996.54711008 Ry
     estimated scf accuracy    <      53.46024550 Ry

     iteration #  3     ecut=    80.00 Ry     beta= 0.40
     Davidson diagonalization with overlap
     ethr =  1.00E-02,  avg # of iterations =  5.9

     negative rho (up, down):  1.269E-01 0.000E+00

     total cpu time spent up to now is       12.1 secs

     total energy              =   -1960.62734114 Ry
     Harris-Foulkes estimate   =   -1977.92627322 Ry
     estimated scf accuracy    <      22.43351475 Ry

     iteration #  4     ecut=    80.00 Ry     beta= 0.40
     Davidson diagonalization with overlap
     ethr =  1.00E-02,  avg # of iterations =  5.0

     negative rho (up, down):  8.150E-01 0.000E+00

     total cpu time spent up to now is       14.5 secs

     total energy              =   -1958.83699982 Ry
     Harris-Foulkes estimate   =   -1995.89558809 Ry
     estimated scf accuracy    <     151.73656132 Ry

     iteration #  5     ecut=    80.00 Ry     beta= 0.40
     Davidson diagonalization with overlap
     ethr =  1.00E-02,  avg # of iterations =  3.0

     negative rho (up, down):  7.938E-01 0.000E+00

     total cpu time spent up to now is       16.5 secs

     total energy              =   -1970.87215830 Ry
     Harris-Foulkes estimate   =   -1971.45755671 Ry
     estimated scf accuracy    <       2.22767563 Ry

     iteration #  6     ecut=    80.00 Ry     beta= 0.40
     Davidson diagonalization with overlap
     ethr =  1.00E-02,  avg # of iterations =  2.0

     negative rho (up, down):  8.082E-01 0.000E+00

     total cpu time spent up to now is       17.8 secs

     total energy              =   -1972.98018159 Ry
     Harris-Foulkes estimate   =   -1972.72157619 Ry
     estimated scf accuracy    <      11.64544873 Ry

     iteration #  7     ecut=    80.00 Ry     beta= 0.40
     Davidson diagonalization with overlap
     ethr =  1.00E-02,  avg # of iterations =  1.0

     negative rho (up, down):  6.655E-01 0.000E+00

     total cpu time spent up to now is       19.0 secs

     total energy              =   -1969.99709076 Ry
     Harris-Foulkes estimate   =   -1972.99424787 Ry
     estimated scf accuracy    <      12.51784481 Ry

     iteration #  8     ecut=    80.00 Ry     beta= 0.40
     Davidson diagonalization with overlap
     ethr =  1.00E-02,  avg # of iterations =  2.3

     negative rho (up, down):  6.765E-01 0.000E+00

     total cpu time spent up to now is       20.4 secs

     total energy              =   -1971.03141613 Ry
     Harris-Foulkes estimate   =   -1970.96688225 Ry
     estimated scf accuracy    <       0.68237797 Ry

     iteration #  9     ecut=    80.00 Ry     beta= 0.40
     Davidson diagonalization with overlap
     ethr =  7.58E-03,  avg # of iterations =  1.0

     negative rho (up, down):  6.707E-01 0.000E+00

     total cpu time spent up to now is       21.6 secs

     total energy              =   -1971.05773557 Ry
     Harris-Foulkes estimate   =   -1971.04928633 Ry
     estimated scf accuracy    <       0.62979062 Ry

     iteration # 10     ecut=    80.00 Ry     beta= 0.40
     Davidson diagonalization with overlap
     ethr =  7.00E-03,  avg # of iterations =  1.0

     negative rho (up, down):  6.665E-01 0.000E+00

     total cpu time spent up to now is       22.7 secs

     total energy              =   -1971.04427361 Ry
     Harris-Foulkes estimate   =   -1971.05945455 Ry
     estimated scf accuracy    <       0.59710240 Ry

     iteration # 11     ecut=    80.00 Ry     beta= 0.40
     Davidson diagonalization with overlap
     ethr =  6.63E-03,  avg # of iterations =  1.0

     negative rho (up, down):  6.684E-01 0.000E+00

     total cpu time spent up to now is       23.7 secs

     total energy              =   -1971.01161276 Ry
     Harris-Foulkes estimate   =   -1971.04663031 Ry
     estimated scf accuracy    <       0.52073720 Ry

     iteration # 12     ecut=    80.00 Ry     beta= 0.40
     Davidson diagonalization with overlap
     ethr =  5.79E-03,  avg # of iterations =  1.0

     negative rho (up, down):  6.175E-01 0.000E+00

     total cpu time spent up to now is       24.9 secs

     total energy              =   -1971.23628413 Ry
     Harris-Foulkes estimate   =   -1971.01229327 Ry
     estimated scf accuracy    <       0.48845334 Ry

     iteration # 13     ecut=    80.00 Ry     beta= 0.40
     Davidson diagonalization with overlap
     ethr =  5.43E-03,  avg # of iterations =  1.0

     negative rho (up, down):  2.252E-01 0.000E+00

     total cpu time spent up to now is       26.1 secs

     total energy              =   -1971.67390790 Ry
     Harris-Foulkes estimate   =   -1971.24317301 Ry
     estimated scf accuracy    <       0.51336076 Ry

     iteration # 14     ecut=    80.00 Ry     beta= 0.40
     Davidson diagonalization with overlap
     ethr =  5.43E-03,  avg # of iterations =  3.7

     negative rho (up, down):  2.278E-01 0.000E+00

     total cpu time spent up to now is       27.6 secs

     total energy              =   -1971.70009305 Ry
     Harris-Foulkes estimate   =   -1971.90105467 Ry
     estimated scf accuracy    <       0.71995559 Ry

     iteration # 15     ecut=    80.00 Ry     beta= 0.40
     Davidson diagonalization with overlap
     ethr =  5.43E-03,  avg # of iterations =  1.0

     negative rho (up, down):  1.991E-01 0.000E+00

     total cpu time spent up to now is       28.7 secs

     total energy              =   -1971.79689646 Ry
     Harris-Foulkes estimate   =   -1971.85425837 Ry
     estimated scf accuracy    <       0.16439966 Ry

     iteration # 16     ecut=    80.00 Ry     beta= 0.40
     Davidson diagonalization with overlap
     ethr =  1.83E-03,  avg # of iterations =  1.0

     negative rho (up, down):  1.916E-01 0.000E+00

     total cpu time spent up to now is       29.9 secs

     total energy              =   -1971.82364114 Ry
     Harris-Foulkes estimate   =   -1971.82388550 Ry
     estimated scf accuracy    <       0.14193539 Ry

     iteration # 17     ecut=    80.00 Ry     beta= 0.40
     Davidson diagonalization with overlap
     ethr =  1.58E-03,  avg # of iterations =  1.0

     negative rho (up, down):  2.585E-01 0.000E+00

     total cpu time spent up to now is       31.1 secs

     total energy              =   -1971.83753240 Ry
     Harris-Foulkes estimate   =   -1971.82549943 Ry
     estimated scf accuracy    <       0.19604633 Ry

     iteration # 18     ecut=    80.00 Ry     beta= 0.40
     Davidson diagonalization with overlap
     ethr =  1.58E-03,  avg # of iterations =  1.0

     negative rho (up, down):  3.239E-02 0.000E+00

     total cpu time spent up to now is       32.3 secs

     total energy              =   -1971.96627667 Ry
     Harris-Foulkes estimate   =   -1971.84166748 Ry
     estimated scf accuracy    <       0.17384957 Ry

     iteration # 19     ecut=    80.00 Ry     beta= 0.40
     Davidson diagonalization with overlap
     ethr =  1.58E-03,  avg # of iterations =  4.8

     negative rho (up, down):  2.124E-01 0.000E+00

     total cpu time spent up to now is       34.7 secs

     total energy              =   -1971.25071780 Ry
     Harris-Foulkes estimate   =   -1972.44707666 Ry
     estimated scf accuracy    <       9.10920244 Ry

     iteration # 20     ecut=    80.00 Ry     beta= 0.40
     Davidson diagonalization with overlap
     ethr =  1.58E-03,  avg # of iterations =  3.0

     negative rho (up, down):  6.642E-02 0.000E+00

     total cpu time spent up to now is       36.5 secs

     total energy              =   -1971.47029935 Ry
     Harris-Foulkes estimate   =   -1971.60689779 Ry
     estimated scf accuracy    <       0.79816935 Ry

     iteration # 21     ecut=    80.00 Ry     beta= 0.40
     Davidson diagonalization with overlap
     ethr =  1.58E-03,  avg # of iterations =  4.5

     negative rho (up, down):  3.837E-02 0.000E+00

     total cpu time spent up to now is       38.2 secs

     total energy              =   -1971.74810400 Ry
     Harris-Foulkes estimate   =   -1971.80073205 Ry
     estimated scf accuracy    <       0.06338455 Ry

     iteration # 22     ecut=    80.00 Ry     beta= 0.40
     Davidson diagonalization with overlap
     ethr =  7.04E-04,  avg # of iterations =  3.1

     negative rho (up, down):  2.432E-02 0.000E+00

     total cpu time spent up to now is       39.7 secs

     total energy              =   -1971.77023120 Ry
     Harris-Foulkes estimate   =   -1971.76056144 Ry
     estimated scf accuracy    <       0.00125188 Ry

     iteration # 23     ecut=    80.00 Ry     beta= 0.40
     Davidson diagonalization with overlap
     ethr =  1.39E-05,  avg # of iterations =  4.3

     negative rho (up, down):  3.060E-02 0.000E+00

     total cpu time spent up to now is       41.7 secs

     total energy              =   -1971.77217438 Ry
     Harris-Foulkes estimate   =   -1971.77269619 Ry
     estimated scf accuracy    <       0.00260649 Ry

     iteration # 24     ecut=    80.00 Ry     beta= 0.40
     Davidson diagonalization with overlap
     ethr =  1.39E-05,  avg # of iterations =  3.0

     negative rho (up, down):  2.862E-02 0.000E+00

     total cpu time spent up to now is       43.1 secs

     total energy              =   -1971.77202007 Ry
     Harris-Foulkes estimate   =   -1971.77238649 Ry
     estimated scf accuracy    <       0.00190834 Ry

     iteration # 25     ecut=    80.00 Ry     beta= 0.40
     Davidson diagonalization with overlap
     ethr =  1.39E-05,  avg # of iterations =  1.0

     negative rho (up, down):  2.688E-02 0.000E+00

     total cpu time spent up to now is       44.2 secs

     total energy              =   -1971.77185847 Ry
     Harris-Foulkes estimate   =   -1971.77206843 Ry
     estimated scf accuracy    <       0.00070679 Ry

     iteration # 26     ecut=    80.00 Ry     beta= 0.40
     Davidson diagonalization with overlap
     ethr =  7.85E-06,  avg # of iterations =  4.0

     negative rho (up, down):  2.731E-02 0.000E+00

     total cpu time spent up to now is       45.8 secs

     total energy              =   -1971.77187060 Ry
     Harris-Foulkes estimate   =   -1971.77189323 Ry
     estimated scf accuracy    <       0.00013373 Ry

     iteration # 27     ecut=    80.00 Ry     beta= 0.40
     Davidson diagonalization with overlap
     ethr =  1.49E-06,  avg # of iterations =  2.3

     negative rho (up, down):  2.733E-02 0.000E+00

     total cpu time spent up to now is       47.1 secs

     total energy              =   -1971.77185501 Ry
     Harris-Foulkes estimate   =   -1971.77187316 Ry
     estimated scf accuracy    <       0.00006840 Ry

     iteration # 28     ecut=    80.00 Ry     beta= 0.40
     Davidson diagonalization with overlap
     ethr =  7.60E-07,  avg # of iterations =  1.0

     negative rho (up, down):  2.727E-02 0.000E+00

     total cpu time spent up to now is       48.3 secs

     total energy              =   -1971.77185004 Ry
     Harris-Foulkes estimate   =   -1971.77185771 Ry
     estimated scf accuracy    <       0.00001753 Ry

     iteration # 29     ecut=    80.00 Ry     beta= 0.40
     Davidson diagonalization with overlap
     ethr =  1.95E-07,  avg # of iterations =  2.7

     negative rho (up, down):  2.731E-02 0.000E+00

     total cpu time spent up to now is       49.5 secs

     total energy              =   -1971.77185326 Ry
     Harris-Foulkes estimate   =   -1971.77185392 Ry
     estimated scf accuracy    <       0.00000058 Ry

     iteration # 30     ecut=    80.00 Ry     beta= 0.40
     Davidson diagonalization with overlap
     ethr =  6.44E-09,  avg # of iterations =  2.6

     negative rho (up, down):  2.731E-02 0.000E+00

     total cpu time spent up to now is       51.0 secs

     total energy              =   -1971.77185352 Ry
     Harris-Foulkes estimate   =   -1971.77185350 Ry
     estimated scf accuracy    <          1.6E-09 Ry

     iteration # 31     ecut=    80.00 Ry     beta= 0.40
     Davidson diagonalization with overlap
     ethr =  1.82E-11,  avg # of iterations =  4.6

     negative rho (up, down):  2.731E-02 0.000E+00

     total cpu time spent up to now is       53.1 secs

     End of self-consistent calculation

     Number of k-points >= 100: set verbosity='high' to print the bands.

     the Fermi energy is -2225.9864 ev

!    total energy              =   -1971.77185353 Ry
     Harris-Foulkes estimate   =   -1971.77185351 Ry
     estimated scf accuracy    <          4.3E-10 Ry

     total all-electron energy =    -17426.857629 Ry

     The total energy is the sum of the following terms:

     one-electron contribution =   -1510.70348472 Ry
     hartree contribution      =      27.97394072 Ry
     xc contribution           =     -31.55108955 Ry
     ewald contribution        =     -71.28245478 Ry
     one-center paw contrib.   =    -386.20597785 Ry
     smearing contrib. (-TS)   =      -0.00278735 Ry

     convergence has been achieved in  31 iterations

     negative rho (up, down):  2.731E-02 0.000E+00

     Forces acting on atoms (cartesian axes, Ry/au):

     atom    1 type  1   force =    -0.00000000    0.00000000   -0.00000000
     atom    2 type  2   force =     0.00000000    0.00000000    0.00000000
     atom    3 type  3   force =     0.00000000   -0.00000000    0.00000000

     Total force =     0.000000     Total SCF correction =     0.000000


     Computing stress (Cartesian axis) and pressure


     negative rho (up, down):  2.731E-02 0.000E+00
          total   stress  (Ry/bohr**3)                   (kbar)     P=********
  -6.25584811  -0.00000000  -0.00000000    -920266.87     -0.00     -0.00
  -0.00000000  -6.25584811   0.00000000         -0.00-920266.87      0.00
  -0.00000000  -0.00000000  -6.25584811         -0.00     -0.00-920266.87


     init_run     :      0.63s CPU      1.34s WALL (       1 calls)
     electrons    :     23.92s CPU     48.86s WALL (       1 calls)
     forces       :      0.14s CPU      0.28s WALL (       1 calls)
     stress       :      0.32s CPU      0.68s WALL (       1 calls)

     Called by init_run:
     wfcinit      :      0.31s CPU      0.61s WALL (       1 calls)
     potinit      :      0.08s CPU      0.24s WALL (       1 calls)
     hinit0       :      0.22s CPU      0.45s WALL (       1 calls)

     Called by electrons:
     c_bands      :     19.34s CPU     36.57s WALL (      31 calls)
     sum_band     :      2.59s CPU      5.35s WALL (      31 calls)
     v_of_rho     :      0.10s CPU      0.20s WALL (      32 calls)
     newd         :      0.20s CPU      0.43s WALL (      32 calls)
     PAW_pot      :      1.72s CPU      6.41s WALL (      32 calls)
     mix_rho      :      0.03s CPU      0.06s WALL (      31 calls)

     Called by c_bands:
     init_us_2    :      0.69s CPU      0.85s WALL (    7150 calls)
     cegterg      :     17.97s CPU     34.01s WALL (    3410 calls)

     Called by sum_band:
     sum_band:bec :      0.03s CPU      0.04s WALL (    3410 calls)
     addusdens    :      0.18s CPU      0.19s WALL (      31 calls)

     Called by *egterg:
     h_psi        :     11.58s CPU     22.71s WALL (   12715 calls)
     s_psi        :      0.97s CPU      1.19s WALL (   12715 calls)
     g_psi        :      0.05s CPU      0.06s WALL (    9195 calls)
     cdiaghg      :      1.85s CPU      3.17s WALL (   12605 calls)

     Called by h_psi:
     h_psi:pot    :     11.52s CPU     22.63s WALL (   12715 calls)
     h_psi:calbec :      1.81s CPU      4.14s WALL (   12715 calls)
     vloc_psi     :      8.67s CPU     17.22s WALL (   12715 calls)
     add_vuspsi   :      1.00s CPU      1.23s WALL (   12715 calls)

     General routines
     calbec       :      2.43s CPU      5.75s WALL (   16675 calls)
     fft          :      0.07s CPU      0.30s WALL (     378 calls)
     ffts         :      0.00s CPU      0.01s WALL (      31 calls)
     fftw         :      9.10s CPU     19.17s WALL (  205022 calls)

     Parallel routines
     fft_scatt_xy :      1.08s CPU      1.33s WALL (  205431 calls)
     fft_scatt_yz :      4.67s CPU     13.91s WALL (  205431 calls)

     PWSCF        :    26.84s CPU        54.06s WALL


   This run was terminated on:  12:39:29  24Oct2018            

=------------------------------------------------------------------------------=
   JOB DONE.
=------------------------------------------------------------------------------=
