
     Program PWSCF v.6.3MaX starts on 23Oct2018 at 13:42:11 

     This program is part of the open-source Quantum ESPRESSO suite
     for quantum simulation of materials; please cite
         "P. Giannozzi et al., J. Phys.:Condens. Matter 21 395502 (2009);
         "P. Giannozzi et al., J. Phys.:Condens. Matter 29 465901 (2017);
          URL http://www.quantum-espresso.org", 
     in publications or presentations arising from this work. More details at
     http://www.quantum-espresso.org/quote

     Parallel version (MPI), running on     8 processors

     MPI processes distributed on     1 nodes
     R & G space division:  proc/nbgrp/npool/nimage =       8
     Waiting for input...
     Reading input from standard input
Warning: card &CELL ignored
Warning: card                CELL_DYNAMICS = 'BFGS' , ignored
Warning: card / ignored

     Current dimensions of program PWSCF are:
     Max number of different atomic species (ntypx) = 10
     Max number of k-points (npk) =  40000
     Max angular momentum in pseudopotentials (lmaxx) =  3
               file N.pbe-n-kjpaw_psl.1.0.0.UPF: wavefunction(s)  2S renormalized
               file Na.pbe-spnl-kjpaw_psl.1.0.0.UPF: wavefunction(s)  2P renormalized

     Subspace diagonalization in iterative solution of the eigenvalue problem:
     a serial algorithm will be used


     Parallelization info
     --------------------
     sticks:   dense  smooth     PW     G-vecs:    dense   smooth      PW
     Min         314     314     90                10339    10339    1578
     Max         315     315     91                10342    10342    1579
     Sum        2515    2515    721                82723    82723   12627



     bravais-lattice index     =            2
     lattice parameter (alat)  =      14.6200  a.u.
     unit-cell volume          =     781.2358 (a.u.)^3
     number of atoms/cell      =            3
     number of atomic types    =            3
     number of electrons       =         9.00
     number of Kohn-Sham states=            9
     kinetic-energy cutoff     =      85.0000  Ry
     charge density cutoff     =     340.0000  Ry
     convergence threshold     =      1.0E-09
     mixing beta               =       0.4000
     number of iterations used =            8  plain     mixing
     Exchange-correlation      = SLA PW PBX PBC ( 1  4  3  4 0 0)

     celldm(1)=  14.620000  celldm(2)=   0.000000  celldm(3)=   0.000000
     celldm(4)=   0.000000  celldm(5)=   0.000000  celldm(6)=   0.000000

     crystal axes: (cart. coord. in units of alat)
               a(1) = (  -0.500000   0.000000   0.500000 )  
               a(2) = (   0.000000   0.500000   0.500000 )  
               a(3) = (  -0.500000   0.500000   0.000000 )  

     reciprocal axes: (cart. coord. in units 2 pi/alat)
               b(1) = ( -1.000000 -1.000000  1.000000 )  
               b(2) = (  1.000000  1.000000  1.000000 )  
               b(3) = ( -1.000000  1.000000 -1.000000 )  


     PseudoPot. # 1 for N  read from file:
     ./../ps/N.pbe-n-kjpaw_psl.1.0.0.UPF
     MD5 check sum: 200139db3989ad6e773ddd42f12fc3a8
     Pseudo is Projector augmented-wave + core cor, Zval =  5.0
     Generated using "atomic" code by A. Dal Corso v.6.3
     Shape of augmentation charge: PSQ
     Using radial grid of 1085 points,  4 beta functions with: 
                l(1) =   0
                l(2) =   0
                l(3) =   1
                l(4) =   1
     Q(r) pseudized with 0 coefficients 


     PseudoPot. # 2 for Na read from file:
     ./../ps/Na.pbe-spnl-kjpaw_psl.1.0.0.UPF
     MD5 check sum: 09e782c158f17eb2240230c4112357ee
     Pseudo is Projector augmented-wave + core cor, Zval =  9.0
     Generated using "atomic" code by A. Dal Corso v.6.3
     Shape of augmentation charge: PSQ
     Using radial grid of 1121 points,  4 beta functions with: 
                l(1) =   0
                l(2) =   0
                l(3) =   1
                l(4) =   1
     Q(r) pseudized with 0 coefficients 


     PseudoPot. # 3 for Cs read from file:
     ./../ps/Cs.pbe-spnl-kjpaw_psl.1.0.0.UPF
     MD5 check sum: f98336d4a4407e24c1ab1e3bc36275e8
     Pseudo is Projector augmented-wave + core cor, Zval = -5.0
     Generated using "atomic" code by A. Dal Corso v.6.2.2
     Shape of augmentation charge: PSQ
     Using radial grid of 1251 points,  6 beta functions with: 
                l(1) =   0
                l(2) =   0
                l(3) =   1
                l(4) =   1
                l(5) =   2
                l(6) =   2
     Q(r) pseudized with 0 coefficients 


     atomic species   valence    mass     pseudopotential
        N              5.00    14.00670     N ( 1.00)
        Na             9.00    22.98977     Na( 1.00)
        Cs            -5.00   132.90545     Cs( 1.00)

     24 Sym. Ops. (no inversion) found



   Cartesian axes

     site n.     atom                  positions (alat units)
         1           N   tau(   1) = (   0.0000000   0.0000000   0.0000000  )
         2           Na  tau(   2) = (  -0.2500000   0.2500000   0.2500000  )
         3           Cs  tau(   3) = (  -0.7500000   0.7500000   0.7500000  )

     number of k points=   110  Methfessel-Paxton smearing, width (Ry)=  0.0200

     Number of k-points >= 100: set verbosity='high' to print them.

     Dense  grid:    82723 G-vectors     FFT dimensions: (  64,  64,  64)

     Estimated max dynamical RAM per process >      69.59 MB

     Estimated total dynamical RAM >     556.68 MB

     Check: negative/imaginary core charge=   -0.000002    0.000000

     Initial potential from superposition of free atoms

     starting charge   22.95298, renormalised to    9.00000
     Starting wfcs are   14 randomized atomic wfcs
     Checking if some PAW data can be deallocated... 

     total cpu time spent up to now is        7.4 secs

     Self-consistent Calculation

     iteration #  1     ecut=    85.00 Ry     beta= 0.40
     Davidson diagonalization with overlap
     ethr =  1.00E-02,  avg # of iterations = 12.4

     total cpu time spent up to now is       32.2 secs

     total energy              =    -717.43494119 Ry
     Harris-Foulkes estimate   =    -745.47060185 Ry
     estimated scf accuracy    <      48.70338327 Ry

     iteration #  2     ecut=    85.00 Ry     beta= 0.40
     Davidson diagonalization with overlap
     ethr =  1.00E-02,  avg # of iterations =  3.0

     total cpu time spent up to now is       45.9 secs

     total energy              =    -709.75289227 Ry
     Harris-Foulkes estimate   =    -719.38876076 Ry
     estimated scf accuracy    <      11.17433299 Ry

     iteration #  3     ecut=    85.00 Ry     beta= 0.40
     Davidson diagonalization with overlap
     ethr =  1.00E-02,  avg # of iterations =  9.5

     negative rho (up, down):  9.367E-02 0.000E+00

     total cpu time spent up to now is       70.1 secs

     total energy              =    -712.59629175 Ry
     Harris-Foulkes estimate   =    -713.18376587 Ry
     estimated scf accuracy    <       1.08369156 Ry

     iteration #  4     ecut=    85.00 Ry     beta= 0.40
     Davidson diagonalization with overlap
     ethr =  1.00E-02,  avg # of iterations =  3.4

     negative rho (up, down):  1.859E-01 0.000E+00

     total cpu time spent up to now is       81.8 secs

     total energy              =    -712.73198138 Ry
     Harris-Foulkes estimate   =    -712.92140164 Ry
     estimated scf accuracy    <       0.27884687 Ry

     iteration #  5     ecut=    85.00 Ry     beta= 0.40
     Davidson diagonalization with overlap
     ethr =  3.10E-03,  avg # of iterations =  6.2

     negative rho (up, down):  2.247E-01 0.000E+00

     total cpu time spent up to now is       98.2 secs

     total energy              =    -712.77641335 Ry
     Harris-Foulkes estimate   =    -712.82182142 Ry
     estimated scf accuracy    <       0.08119079 Ry

     iteration #  6     ecut=    85.00 Ry     beta= 0.40
     Davidson diagonalization with overlap
     ethr =  9.02E-04,  avg # of iterations =  2.8

     negative rho (up, down):  2.232E-01 0.000E+00

     total cpu time spent up to now is      109.7 secs

     total energy              =    -712.79250221 Ry
     Harris-Foulkes estimate   =    -712.79251379 Ry
     estimated scf accuracy    <       0.00004203 Ry

     iteration #  7     ecut=    85.00 Ry     beta= 0.40
     Davidson diagonalization with overlap
     ethr =  4.67E-07,  avg # of iterations = 12.5

     negative rho (up, down):  2.229E-01 0.000E+00

     total cpu time spent up to now is      139.0 secs

     total energy              =    -712.79363816 Ry
     Harris-Foulkes estimate   =    -712.79365146 Ry
     estimated scf accuracy    <       0.00001322 Ry

     iteration #  8     ecut=    85.00 Ry     beta= 0.40
     Davidson diagonalization with overlap
     ethr =  1.47E-07,  avg # of iterations =  3.0

     negative rho (up, down):  2.236E-01 0.000E+00

     total cpu time spent up to now is      150.6 secs

     total energy              =    -712.79364645 Ry
     Harris-Foulkes estimate   =    -712.79364936 Ry
     estimated scf accuracy    <       0.00000686 Ry

     iteration #  9     ecut=    85.00 Ry     beta= 0.40
     Davidson diagonalization with overlap
     ethr =  7.62E-08,  avg # of iterations =  2.0

     negative rho (up, down):  2.235E-01 0.000E+00

     total cpu time spent up to now is      161.8 secs

     total energy              =    -712.79364609 Ry
     Harris-Foulkes estimate   =    -712.79364835 Ry
     estimated scf accuracy    <       0.00000135 Ry

     iteration # 10     ecut=    85.00 Ry     beta= 0.40
     Davidson diagonalization with overlap
     ethr =  1.50E-08,  avg # of iterations =  2.0

     negative rho (up, down):  2.234E-01 0.000E+00

     total cpu time spent up to now is      173.0 secs

     total energy              =    -712.79364574 Ry
     Harris-Foulkes estimate   =    -712.79364628 Ry
     estimated scf accuracy    <       0.00000027 Ry

     iteration # 11     ecut=    85.00 Ry     beta= 0.40
     Davidson diagonalization with overlap
     ethr =  3.03E-09,  avg # of iterations =  2.5

     negative rho (up, down):  2.234E-01 0.000E+00

     total cpu time spent up to now is      184.9 secs

     total energy              =    -712.79364580 Ry
     Harris-Foulkes estimate   =    -712.79364583 Ry
     estimated scf accuracy    <       0.00000002 Ry

     iteration # 12     ecut=    85.00 Ry     beta= 0.40
     Davidson diagonalization with overlap
     ethr =  2.00E-10,  avg # of iterations =  3.0

     negative rho (up, down):  2.234E-01 0.000E+00

     total cpu time spent up to now is      198.5 secs

     End of self-consistent calculation

     Number of k-points >= 100: set verbosity='high' to print the bands.

     the Fermi energy is  -323.9947 ev

!    total energy              =    -712.79364581 Ry
     Harris-Foulkes estimate   =    -712.79364581 Ry
     estimated scf accuracy    <          2.3E-10 Ry

     total all-electron energy =    -16167.879422 Ry

     The total energy is the sum of the following terms:

     one-electron contribution =    -316.87327751 Ry
     hartree contribution      =      54.82413465 Ry
     xc contribution           =     -28.95923227 Ry
     ewald contribution        =     -36.56760676 Ry
     one-center paw contrib.   =    -385.20901367 Ry
     smearing contrib. (-TS)   =      -0.00865025 Ry

     convergence has been achieved in  12 iterations

     negative rho (up, down):  2.234E-01 0.000E+00

     Forces acting on atoms (cartesian axes, Ry/au):

     atom    1 type  1   force =     0.00000000    0.00000000    0.00000000
     atom    2 type  2   force =    -0.00000000    0.00000000   -0.00000000
     atom    3 type  3   force =     0.00000000    0.00000000    0.00000000

     Total force =     0.000000     Total SCF correction =     0.000000


     Computing stress (Cartesian axis) and pressure


     negative rho (up, down):  2.234E-01 0.000E+00
          total   stress  (Ry/bohr**3)                   (kbar)     P=********
  -0.14342007  -0.00000000  -0.00000000     -21097.82     -0.00     -0.00
  -0.00000000  -0.14342007  -0.00000000         -0.00 -21097.82     -0.00
  -0.00000000  -0.00000000  -0.14342007         -0.00     -0.00 -21097.82


     Writing output data file NNaCs.save/

     init_run     :      4.67s CPU      5.52s WALL (       1 calls)
     electrons    :    154.77s CPU    191.11s WALL (       1 calls)
     forces       :      1.39s CPU      1.71s WALL (       1 calls)
     stress       :      3.21s CPU      3.56s WALL (       1 calls)

     Called by init_run:
     wfcinit      :      3.89s CPU      4.41s WALL (       1 calls)
     potinit      :      0.14s CPU      0.22s WALL (       1 calls)
     hinit0       :      0.46s CPU      0.67s WALL (       1 calls)

     Called by electrons:
     c_bands      :    130.08s CPU    159.58s WALL (      12 calls)
     sum_band     :     22.09s CPU     27.51s WALL (      12 calls)
     v_of_rho     :      0.49s CPU      0.67s WALL (      13 calls)
     newd         :      1.43s CPU      1.78s WALL (      13 calls)
     PAW_pot      :      0.67s CPU      1.62s WALL (      13 calls)
     mix_rho      :      0.15s CPU      0.16s WALL (      12 calls)

     Called by c_bands:
     init_us_2    :      2.93s CPU      3.42s WALL (    2970 calls)
     cegterg      :    125.91s CPU    154.58s WALL (    1320 calls)

     Called by sum_band:
     sum_band:bec :      0.03s CPU      0.04s WALL (    1320 calls)
     addusdens    :      1.20s CPU      1.37s WALL (      12 calls)

     Called by *egterg:
     h_psi        :    105.83s CPU    130.08s WALL (    8274 calls)
     s_psi        :      4.61s CPU      5.17s WALL (    8274 calls)
     g_psi        :      0.22s CPU      0.25s WALL (    6844 calls)
     cdiaghg      :      1.78s CPU      2.12s WALL (    8164 calls)

     Called by h_psi:
     h_psi:pot    :    105.18s CPU    129.28s WALL (    8274 calls)
     h_psi:calbec :      8.80s CPU     10.99s WALL (    8274 calls)
     vloc_psi     :     90.58s CPU    111.61s WALL (    8274 calls)
     add_vuspsi   :      5.73s CPU      6.62s WALL (    8274 calls)

     General routines
     calbec       :     11.65s CPU     14.91s WALL (   10144 calls)
     fft          :      0.32s CPU      0.45s WALL (     169 calls)
     ffts         :      0.02s CPU      0.03s WALL (      12 calls)
     fftw         :     76.98s CPU     97.52s WALL (   99662 calls)

     Parallel routines
     fft_scatt_xy :     13.43s CPU     16.30s WALL (   99843 calls)
     fft_scatt_yz :     24.11s CPU     35.40s WALL (   99843 calls)

     PWSCF        :  2m45.93s CPU     3m24.10s WALL


   This run was terminated on:  13:45:36  23Oct2018            

=------------------------------------------------------------------------------=
   JOB DONE.
=------------------------------------------------------------------------------=
