
     Program PWSCF v.6.3MaX starts on 23Oct2018 at 17: 6: 2 

     This program is part of the open-source Quantum ESPRESSO suite
     for quantum simulation of materials; please cite
         "P. Giannozzi et al., J. Phys.:Condens. Matter 21 395502 (2009);
         "P. Giannozzi et al., J. Phys.:Condens. Matter 29 465901 (2017);
          URL http://www.quantum-espresso.org", 
     in publications or presentations arising from this work. More details at
     http://www.quantum-espresso.org/quote

     Parallel version (MPI), running on     8 processors

     MPI processes distributed on     1 nodes
     R & G space division:  proc/nbgrp/npool/nimage =       8
     Waiting for input...
     Reading input from standard input
Warning: card &CELL ignored
Warning: card                CELL_DYNAMICS = 'BFGS' , ignored
Warning: card / ignored

     Current dimensions of program PWSCF are:
     Max number of different atomic species (ntypx) = 10
     Max number of k-points (npk) =  40000
     Max angular momentum in pseudopotentials (lmaxx) =  3
               file N.pbe-n-kjpaw_psl.1.0.0.UPF: wavefunction(s)  2S renormalized
               file Na.pbe-spnl-kjpaw_psl.1.0.0.UPF: wavefunction(s)  2P renormalized

     Subspace diagonalization in iterative solution of the eigenvalue problem:
     a serial algorithm will be used


     Parallelization info
     --------------------
     sticks:   dense  smooth     PW     G-vecs:    dense   smooth      PW
     Min         354     354    100                12403    12403    1881
     Max         355     355    101                12406    12406    1884
     Sum        2839    2839    805                99245    99245   15065



     bravais-lattice index     =            2
     lattice parameter (alat)  =      16.0000  a.u.
     unit-cell volume          =    1024.0000 (a.u.)^3
     number of atoms/cell      =            3
     number of atomic types    =            3
     number of electrons       =         9.00
     number of Kohn-Sham states=            9
     kinetic-energy cutoff     =      80.0000  Ry
     charge density cutoff     =     320.0000  Ry
     convergence threshold     =      1.0E-09
     mixing beta               =       0.4000
     number of iterations used =            8  plain     mixing
     Exchange-correlation      = SLA PW PBX PBC ( 1  4  3  4 0 0)

     celldm(1)=  16.000000  celldm(2)=   0.000000  celldm(3)=   0.000000
     celldm(4)=   0.000000  celldm(5)=   0.000000  celldm(6)=   0.000000

     crystal axes: (cart. coord. in units of alat)
               a(1) = (  -0.500000   0.000000   0.500000 )  
               a(2) = (   0.000000   0.500000   0.500000 )  
               a(3) = (  -0.500000   0.500000   0.000000 )  

     reciprocal axes: (cart. coord. in units 2 pi/alat)
               b(1) = ( -1.000000 -1.000000  1.000000 )  
               b(2) = (  1.000000  1.000000  1.000000 )  
               b(3) = ( -1.000000  1.000000 -1.000000 )  


     PseudoPot. # 1 for N  read from file:
     ./ps/N.pbe-n-kjpaw_psl.1.0.0.UPF
     MD5 check sum: 200139db3989ad6e773ddd42f12fc3a8
     Pseudo is Projector augmented-wave + core cor, Zval =  5.0
     Generated using "atomic" code by A. Dal Corso v.6.3
     Shape of augmentation charge: PSQ
     Using radial grid of 1085 points,  4 beta functions with: 
                l(1) =   0
                l(2) =   0
                l(3) =   1
                l(4) =   1
     Q(r) pseudized with 0 coefficients 


     PseudoPot. # 2 for Na read from file:
     ./ps/Na.pbe-spnl-kjpaw_psl.1.0.0.UPF
     MD5 check sum: 09e782c158f17eb2240230c4112357ee
     Pseudo is Projector augmented-wave + core cor, Zval =  9.0
     Generated using "atomic" code by A. Dal Corso v.6.3
     Shape of augmentation charge: PSQ
     Using radial grid of 1121 points,  4 beta functions with: 
                l(1) =   0
                l(2) =   0
                l(3) =   1
                l(4) =   1
     Q(r) pseudized with 0 coefficients 


     PseudoPot. # 3 for Cs read from file:
     ./ps/Cs.pbe-spnl-kjpaw_psl.1.0.0.UPF
     MD5 check sum: f98336d4a4407e24c1ab1e3bc36275e8
     Pseudo is Projector augmented-wave + core cor, Zval = -5.0
     Generated using "atomic" code by A. Dal Corso v.6.2.2
     Shape of augmentation charge: PSQ
     Using radial grid of 1251 points,  6 beta functions with: 
                l(1) =   0
                l(2) =   0
                l(3) =   1
                l(4) =   1
                l(5) =   2
                l(6) =   2
     Q(r) pseudized with 0 coefficients 


     atomic species   valence    mass     pseudopotential
        N              5.00    14.00670     N ( 1.00)
        Na             9.00    22.98977     Na( 1.00)
        Cs            -5.00   132.90545     Cs( 1.00)

     24 Sym. Ops. (no inversion) found



   Cartesian axes

     site n.     atom                  positions (alat units)
         1           N   tau(   1) = (   0.0000000   0.0000000   0.0000000  )
         2           Na  tau(   2) = (  -0.2500000   0.2500000   0.2500000  )
         3           Cs  tau(   3) = (  -0.7500000   0.7500000   0.7500000  )

     number of k points=   110  Methfessel-Paxton smearing, width (Ry)=  0.0200

     Number of k-points >= 100: set verbosity='high' to print them.

     Dense  grid:    99245 G-vectors     FFT dimensions: (  72,  72,  72)

     Estimated max dynamical RAM per process >      82.49 MB

     Estimated total dynamical RAM >     659.95 MB

     Check: negative/imaginary core charge=   -0.000002    0.000000

     Initial potential from superposition of free atoms

     starting charge   22.95298, renormalised to    9.00000
     Starting wfcs are   14 randomized atomic wfcs
     Checking if some PAW data can be deallocated... 

     total cpu time spent up to now is       12.4 secs

     Self-consistent Calculation

     iteration #  1     ecut=    80.00 Ry     beta= 0.40
     Davidson diagonalization with overlap
     ethr =  1.00E-02,  avg # of iterations =  5.0

     total cpu time spent up to now is       46.7 secs

     total energy              =    -698.19950924 Ry
     Harris-Foulkes estimate   =    -727.28524719 Ry
     estimated scf accuracy    <      50.55432079 Ry

     iteration #  2     ecut=    80.00 Ry     beta= 0.40
     Davidson diagonalization with overlap
     ethr =  1.00E-02,  avg # of iterations =  3.0

     total cpu time spent up to now is       70.3 secs

     total energy              =    -689.44171912 Ry
     Harris-Foulkes estimate   =    -700.03175315 Ry
     estimated scf accuracy    <      12.14735930 Ry

     iteration #  3     ecut=    80.00 Ry     beta= 0.40
     Davidson diagonalization with overlap
     ethr =  1.00E-02,  avg # of iterations =  2.0

     total cpu time spent up to now is       94.1 secs

     total energy              =    -692.58869604 Ry
     Harris-Foulkes estimate   =    -693.31468268 Ry
     estimated scf accuracy    <       1.38039146 Ry

     iteration #  4     ecut=    80.00 Ry     beta= 0.40
     Davidson diagonalization with overlap
     ethr =  1.00E-02,  avg # of iterations =  2.0

     negative rho (up, down):  2.738E-06 0.000E+00

     total cpu time spent up to now is      113.6 secs

     total energy              =    -692.68226493 Ry
     Harris-Foulkes estimate   =    -692.85461403 Ry
     estimated scf accuracy    <       0.26783749 Ry

     iteration #  5     ecut=    80.00 Ry     beta= 0.40
     Davidson diagonalization with overlap
     ethr =  2.98E-03,  avg # of iterations =  2.0

     negative rho (up, down):  4.120E-04 0.000E+00

     total cpu time spent up to now is      131.4 secs

     total energy              =    -692.68037838 Ry
     Harris-Foulkes estimate   =    -692.74764507 Ry
     estimated scf accuracy    <       0.10667106 Ry

     iteration #  6     ecut=    80.00 Ry     beta= 0.40
     Davidson diagonalization with overlap
     ethr =  1.19E-03,  avg # of iterations =  1.0

     negative rho (up, down):  8.428E-04 0.000E+00

     total cpu time spent up to now is      148.6 secs

     total energy              =    -692.70020134 Ry
     Harris-Foulkes estimate   =    -692.70022531 Ry
     estimated scf accuracy    <       0.00006907 Ry

     iteration #  7     ecut=    80.00 Ry     beta= 0.40
     Davidson diagonalization with overlap
     ethr =  7.67E-07,  avg # of iterations = 13.5

     negative rho (up, down):  7.347E-04 0.000E+00

     total cpu time spent up to now is      201.2 secs

     total energy              =    -692.70101655 Ry
     Harris-Foulkes estimate   =    -692.70103286 Ry
     estimated scf accuracy    <       0.00001944 Ry

     iteration #  8     ecut=    80.00 Ry     beta= 0.40
     Davidson diagonalization with overlap
     ethr =  2.16E-07,  avg # of iterations =  2.1

     negative rho (up, down):  8.107E-04 0.000E+00

     total cpu time spent up to now is      221.1 secs

     total energy              =    -692.70101756 Ry
     Harris-Foulkes estimate   =    -692.70101897 Ry
     estimated scf accuracy    <       0.00000615 Ry

     iteration #  9     ecut=    80.00 Ry     beta= 0.40
     Davidson diagonalization with overlap
     ethr =  6.83E-08,  avg # of iterations =  1.0

     negative rho (up, down):  7.941E-04 0.000E+00

     total cpu time spent up to now is      241.7 secs

     total energy              =    -692.70101534 Ry
     Harris-Foulkes estimate   =    -692.70101770 Ry
     estimated scf accuracy    <       0.00000154 Ry

     iteration # 10     ecut=    80.00 Ry     beta= 0.40
     Davidson diagonalization with overlap
     ethr =  1.71E-08,  avg # of iterations =  2.0

     negative rho (up, down):  7.941E-04 0.000E+00

     total cpu time spent up to now is      263.5 secs

     total energy              =    -692.70101587 Ry
     Harris-Foulkes estimate   =    -692.70101587 Ry
     estimated scf accuracy    <       0.00000002 Ry

     iteration # 11     ecut=    80.00 Ry     beta= 0.40
     Davidson diagonalization with overlap
     ethr =  2.63E-10,  avg # of iterations =  2.0

     negative rho (up, down):  7.936E-04 0.000E+00

     total cpu time spent up to now is      284.0 secs

     total energy              =    -692.70101586 Ry
     Harris-Foulkes estimate   =    -692.70101587 Ry
     estimated scf accuracy    <       0.00000002 Ry

     iteration # 12     ecut=    80.00 Ry     beta= 0.40
     Davidson diagonalization with overlap
     ethr =  1.89E-10,  avg # of iterations =  2.0

     negative rho (up, down):  7.937E-04 0.000E+00

     total cpu time spent up to now is      304.6 secs

     total energy              =    -692.70101586 Ry
     Harris-Foulkes estimate   =    -692.70101586 Ry
     estimated scf accuracy    <          1.4E-09 Ry

     iteration # 13     ecut=    80.00 Ry     beta= 0.40
     Davidson diagonalization with overlap
     ethr =  1.61E-11,  avg # of iterations =  2.0

     negative rho (up, down):  7.938E-04 0.000E+00

     total cpu time spent up to now is      327.0 secs

     End of self-consistent calculation

     Number of k-points >= 100: set verbosity='high' to print the bands.

     the Fermi energy is  -281.3980 ev

!    total energy              =    -692.70101586 Ry
     Harris-Foulkes estimate   =    -692.70101586 Ry
     estimated scf accuracy    <          3.6E-10 Ry

     total all-electron energy =    -16147.786792 Ry

     The total energy is the sum of the following terms:

     one-electron contribution =    -303.45751855 Ry
     hartree contribution      =      57.88747356 Ry
     xc contribution           =     -29.08670205 Ry
     ewald contribution        =     -33.41365068 Ry
     one-center paw contrib.   =    -384.62497624 Ry
     smearing contrib. (-TS)   =      -0.00564190 Ry

     convergence has been achieved in  13 iterations

     negative rho (up, down):  7.938E-04 0.000E+00

     Forces acting on atoms (cartesian axes, Ry/au):

     atom    1 type  1   force =     0.00000000    0.00000000    0.00000000
     atom    2 type  2   force =    -0.00000000   -0.00000000    0.00000000
     atom    3 type  3   force =     0.00000000    0.00000000    0.00000000

     Total force =     0.000000     Total SCF correction =     0.000000


     Computing stress (Cartesian axis) and pressure


     negative rho (up, down):  7.938E-04 0.000E+00
          total   stress  (Ry/bohr**3)                   (kbar)     P=-9480.17
  -0.06444489  -0.00000000  -0.00000000      -9480.17     -0.00     -0.00
  -0.00000000  -0.06444489   0.00000000         -0.00  -9480.17      0.00
   0.00000000   0.00000000  -0.06444489          0.00      0.00  -9480.17


     Writing output data file NNaCs.save/

     init_run     :      9.39s CPU     10.69s WALL (       1 calls)
     electrons    :    273.03s CPU    314.61s WALL (       1 calls)
     forces       :      1.52s CPU      1.86s WALL (       1 calls)
     stress       :      3.15s CPU      4.02s WALL (       1 calls)

     Called by init_run:
     wfcinit      :      8.55s CPU      9.65s WALL (       1 calls)
     potinit      :      0.16s CPU      0.24s WALL (       1 calls)
     hinit0       :      0.42s CPU      0.53s WALL (       1 calls)

     Called by electrons:
     c_bands      :    224.74s CPU    257.13s WALL (      13 calls)
     sum_band     :     45.12s CPU     52.66s WALL (      13 calls)
     v_of_rho     :      0.94s CPU      1.17s WALL (      14 calls)
     newd         :      1.58s CPU      2.08s WALL (      14 calls)
     PAW_pot      :      0.63s CPU      1.56s WALL (      14 calls)
     mix_rho      :      0.20s CPU      0.24s WALL (      13 calls)

     Called by c_bands:
     init_us_2    :      3.47s CPU      3.82s WALL (    3190 calls)
     cegterg      :    219.39s CPU    251.00s WALL (    1430 calls)

     Called by sum_band:
     sum_band:bec :      0.04s CPU      0.04s WALL (    1430 calls)
     addusdens    :      1.30s CPU      1.66s WALL (      13 calls)

     Called by *egterg:
     h_psi        :    208.07s CPU    238.49s WALL (    5899 calls)
     s_psi        :      4.68s CPU      4.97s WALL (    5899 calls)
     g_psi        :      0.19s CPU      0.21s WALL (    4359 calls)
     cdiaghg      :      1.09s CPU      1.22s WALL (    5789 calls)

     Called by h_psi:
     h_psi:pot    :    207.49s CPU    237.85s WALL (    5899 calls)
     h_psi:calbec :      7.16s CPU      8.54s WALL (    5899 calls)
     vloc_psi     :    195.09s CPU    223.46s WALL (    5899 calls)
     add_vuspsi   :      5.19s CPU      5.81s WALL (    5899 calls)

     General routines
     calbec       :     10.28s CPU     12.41s WALL (    7879 calls)
     fft          :      0.70s CPU      0.95s WALL (     180 calls)
     ffts         :      0.06s CPU      0.07s WALL (      13 calls)
     fftw         :    173.54s CPU    202.46s WALL (   90692 calls)

     Parallel routines
     fft_scatt_xy :     32.98s CPU     36.69s WALL (   90885 calls)
     fft_scatt_yz :     35.36s CPU     51.10s WALL (   90885 calls)

     PWSCF        :  4m48.89s CPU     5m33.19s WALL


   This run was terminated on:  17:11:35  23Oct2018            

=------------------------------------------------------------------------------=
   JOB DONE.
=------------------------------------------------------------------------------=
