
     Program PWSCF v.6.3MaX starts on 24Oct2018 at 13:19:26 

     This program is part of the open-source Quantum ESPRESSO suite
     for quantum simulation of materials; please cite
         "P. Giannozzi et al., J. Phys.:Condens. Matter 21 395502 (2009);
         "P. Giannozzi et al., J. Phys.:Condens. Matter 29 465901 (2017);
          URL http://www.quantum-espresso.org", 
     in publications or presentations arising from this work. More details at
     http://www.quantum-espresso.org/quote

     Parallel version (MPI), running on     8 processors

     MPI processes distributed on     1 nodes
     R & G space division:  proc/nbgrp/npool/nimage =       8
     Waiting for input...
     Reading input from standard input
Warning: card &CELL ignored
Warning: card                CELL_DYNAMICS = 'BFGS' , ignored
Warning: card / ignored

     Current dimensions of program PWSCF are:
     Max number of different atomic species (ntypx) = 10
     Max number of k-points (npk) =  40000
     Max angular momentum in pseudopotentials (lmaxx) =  3
     Message from routine iosys:
     minimal I/O required, wf_collect reset to FALSE
               file N.pbe-n-kjpaw_psl.1.0.0.UPF: wavefunction(s)  2S renormalized
               file Na.pbe-spnl-kjpaw_psl.1.0.0.UPF: wavefunction(s)  2P renormalized

     Subspace diagonalization in iterative solution of the eigenvalue problem:
     a serial algorithm will be used


     Parallelization info
     --------------------
     sticks:   dense  smooth     PW     G-vecs:    dense   smooth      PW
     Min          31      31     11                  334      334      76
     Max          32      32     12                  337      337      77
     Sum         253     253     91                 2685     2685     609



     bravais-lattice index     =            2
     lattice parameter (alat)  =       4.8000  a.u.
     unit-cell volume          =      27.6480 (a.u.)^3
     number of atoms/cell      =            3
     number of atomic types    =            3
     number of electrons       =         9.00
     number of Kohn-Sham states=            9
     kinetic-energy cutoff     =      80.0000  Ry
     charge density cutoff     =     320.0000  Ry
     convergence threshold     =      1.0E-09
     mixing beta               =       0.4000
     number of iterations used =            8  plain     mixing
     Exchange-correlation      = SLA PW PBX PBC ( 1  4  3  4 0 0)

     celldm(1)=   4.800000  celldm(2)=   0.000000  celldm(3)=   0.000000
     celldm(4)=   0.000000  celldm(5)=   0.000000  celldm(6)=   0.000000

     crystal axes: (cart. coord. in units of alat)
               a(1) = (  -0.500000   0.000000   0.500000 )  
               a(2) = (   0.000000   0.500000   0.500000 )  
               a(3) = (  -0.500000   0.500000   0.000000 )  

     reciprocal axes: (cart. coord. in units 2 pi/alat)
               b(1) = ( -1.000000 -1.000000  1.000000 )  
               b(2) = (  1.000000  1.000000  1.000000 )  
               b(3) = ( -1.000000  1.000000 -1.000000 )  


     PseudoPot. # 1 for N  read from file:
     ./ps/N.pbe-n-kjpaw_psl.1.0.0.UPF
     MD5 check sum: 200139db3989ad6e773ddd42f12fc3a8
     Pseudo is Projector augmented-wave + core cor, Zval =  5.0
     Generated using "atomic" code by A. Dal Corso v.6.3
     Shape of augmentation charge: PSQ
     Using radial grid of 1085 points,  4 beta functions with: 
                l(1) =   0
                l(2) =   0
                l(3) =   1
                l(4) =   1
     Q(r) pseudized with 0 coefficients 


     PseudoPot. # 2 for Na read from file:
     ./ps/Na.pbe-spnl-kjpaw_psl.1.0.0.UPF
     MD5 check sum: 09e782c158f17eb2240230c4112357ee
     Pseudo is Projector augmented-wave + core cor, Zval =  9.0
     Generated using "atomic" code by A. Dal Corso v.6.3
     Shape of augmentation charge: PSQ
     Using radial grid of 1121 points,  4 beta functions with: 
                l(1) =   0
                l(2) =   0
                l(3) =   1
                l(4) =   1
     Q(r) pseudized with 0 coefficients 


     PseudoPot. # 3 for Cs read from file:
     ./ps/Cs.pbe-spnl-kjpaw_psl.1.0.0.UPF
     MD5 check sum: f98336d4a4407e24c1ab1e3bc36275e8
     Pseudo is Projector augmented-wave + core cor, Zval = -5.0
     Generated using "atomic" code by A. Dal Corso v.6.2.2
     Shape of augmentation charge: PSQ
     Using radial grid of 1251 points,  6 beta functions with: 
                l(1) =   0
                l(2) =   0
                l(3) =   1
                l(4) =   1
                l(5) =   2
                l(6) =   2
     Q(r) pseudized with 0 coefficients 


     atomic species   valence    mass     pseudopotential
        N              5.00    14.00670     N ( 1.00)
        Na             9.00    22.98977     Na( 1.00)
        Cs            -5.00   132.90545     Cs( 1.00)

     24 Sym. Ops. (no inversion) found



   Cartesian axes

     site n.     atom                  positions (alat units)
         1           N   tau(   1) = (   0.0000000   0.0000000   0.0000000  )
         2           Na  tau(   2) = (  -0.2500000   0.2500000   0.2500000  )
         3           Cs  tau(   3) = (  -0.7500000   0.7500000   0.7500000  )

     number of k points=   110  Methfessel-Paxton smearing, width (Ry)=  0.0200

     Number of k-points >= 100: set verbosity='high' to print them.

     Dense  grid:     2685 G-vectors     FFT dimensions: (  20,  20,  20)

     Estimated max dynamical RAM per process >       5.22 MB

     Estimated total dynamical RAM >      41.72 MB

     Initial potential from superposition of free atoms

     starting charge   22.95298, renormalised to    9.00000
     Starting wfcs are   14 randomized atomic wfcs
     Checking if some PAW data can be deallocated... 

     total cpu time spent up to now is        3.7 secs

     Self-consistent Calculation

     iteration #  1     ecut=    80.00 Ry     beta= 0.40
     Davidson diagonalization with overlap
     ethr =  1.00E-02,  avg # of iterations =  9.7

     negative rho (up, down):  9.059E-01 0.000E+00

     total cpu time spent up to now is        5.4 secs

     total energy              =   -6113.39653156 Ry
     Harris-Foulkes estimate   =   -6119.19875334 Ry
     estimated scf accuracy    <      17.72393420 Ry

     iteration #  2     ecut=    80.00 Ry     beta= 0.40
     Davidson diagonalization with overlap
     ethr =  1.00E-02,  avg # of iterations =  1.0

     negative rho (up, down):  2.476E+00 0.000E+00

     total cpu time spent up to now is        5.9 secs

     total energy              =   -6109.72449341 Ry
     Harris-Foulkes estimate   =   -6113.44788885 Ry
     estimated scf accuracy    <       6.20595939 Ry

     iteration #  3     ecut=    80.00 Ry     beta= 0.40
     Davidson diagonalization with overlap
     ethr =  1.00E-02,  avg # of iterations =  2.0

     negative rho (up, down):  2.440E+00 0.000E+00

     total cpu time spent up to now is        6.6 secs

     total energy              =   -6109.98587540 Ry
     Harris-Foulkes estimate   =   -6109.98987109 Ry
     estimated scf accuracy    <       0.02098151 Ry

     iteration #  4     ecut=    80.00 Ry     beta= 0.40
     Davidson diagonalization with overlap
     ethr =  2.33E-04,  avg # of iterations =  4.9

     negative rho (up, down):  2.388E+00 0.000E+00

     total cpu time spent up to now is        7.7 secs

     total energy              =   -6109.99775350 Ry
     Harris-Foulkes estimate   =   -6110.00054548 Ry
     estimated scf accuracy    <       0.00923792 Ry

     iteration #  5     ecut=    80.00 Ry     beta= 0.40
     Davidson diagonalization with overlap
     ethr =  1.03E-04,  avg # of iterations =  1.3

     negative rho (up, down):  2.374E+00 0.000E+00

     total cpu time spent up to now is        8.4 secs

     total energy              =   -6110.00070722 Ry
     Harris-Foulkes estimate   =   -6109.99878915 Ry
     estimated scf accuracy    <       0.00021924 Ry

     iteration #  6     ecut=    80.00 Ry     beta= 0.40
     Davidson diagonalization with overlap
     ethr =  2.44E-06,  avg # of iterations =  4.8

     negative rho (up, down):  2.387E+00 0.000E+00

     total cpu time spent up to now is        9.4 secs

     total energy              =   -6110.00094239 Ry
     Harris-Foulkes estimate   =   -6110.00090638 Ry
     estimated scf accuracy    <       0.00028509 Ry

     iteration #  7     ecut=    80.00 Ry     beta= 0.40
     Davidson diagonalization with overlap
     ethr =  2.44E-06,  avg # of iterations =  2.0

     negative rho (up, down):  2.383E+00 0.000E+00

     total cpu time spent up to now is       10.1 secs

     total energy              =   -6110.00102079 Ry
     Harris-Foulkes estimate   =   -6110.00099682 Ry
     estimated scf accuracy    <       0.00002660 Ry

     iteration #  8     ecut=    80.00 Ry     beta= 0.40
     Davidson diagonalization with overlap
     ethr =  2.96E-07,  avg # of iterations =  2.7

     negative rho (up, down):  2.384E+00 0.000E+00

     total cpu time spent up to now is       10.8 secs

     total energy              =   -6110.00099847 Ry
     Harris-Foulkes estimate   =   -6110.00102935 Ry
     estimated scf accuracy    <       0.00000286 Ry

     iteration #  9     ecut=    80.00 Ry     beta= 0.40
     Davidson diagonalization with overlap
     ethr =  3.18E-08,  avg # of iterations =  3.1

     negative rho (up, down):  2.384E+00 0.000E+00

     total cpu time spent up to now is       11.7 secs

     total energy              =   -6110.00101206 Ry
     Harris-Foulkes estimate   =   -6110.00099982 Ry
     estimated scf accuracy    <       0.00000070 Ry

     iteration # 10     ecut=    80.00 Ry     beta= 0.40
     Davidson diagonalization with overlap
     ethr =  7.82E-09,  avg # of iterations =  2.0

     negative rho (up, down):  2.384E+00 0.000E+00

     total cpu time spent up to now is       12.4 secs

     total energy              =   -6110.00100766 Ry
     Harris-Foulkes estimate   =   -6110.00101207 Ry
     estimated scf accuracy    <       0.00000002 Ry

     iteration # 11     ecut=    80.00 Ry     beta= 0.40
     Davidson diagonalization with overlap
     ethr =  1.77E-10,  avg # of iterations =  3.2

     negative rho (up, down):  2.384E+00 0.000E+00

     total cpu time spent up to now is       13.2 secs

     total energy              =   -6110.00101000 Ry
     Harris-Foulkes estimate   =   -6110.00100770 Ry
     estimated scf accuracy    <          5.9E-09 Ry

     iteration # 12     ecut=    80.00 Ry     beta= 0.40
     Davidson diagonalization with overlap
     ethr =  6.53E-11,  avg # of iterations =  2.0

     negative rho (up, down):  2.384E+00 0.000E+00

     total cpu time spent up to now is       13.9 secs

     End of self-consistent calculation

     Number of k-points >= 100: set verbosity='high' to print the bands.

     the Fermi energy is -8416.4223 ev

!    total energy              =   -6110.00101027 Ry
     Harris-Foulkes estimate   =   -6110.00101003 Ry
     estimated scf accuracy    <          7.1E-12 Ry

     total all-electron energy =    -21565.086786 Ry

     The total energy is the sum of the following terms:

     one-electron contribution =   -5587.60506981 Ry
     hartree contribution      =      10.92005111 Ry
     xc contribution           =     -30.85550364 Ry
     ewald contribution        =    -111.37883256 Ry
     one-center paw contrib.   =    -391.08180091 Ry
     smearing contrib. (-TS)   =       0.00014554 Ry

     convergence has been achieved in  12 iterations

     negative rho (up, down):  2.384E+00 0.000E+00

     Forces acting on atoms (cartesian axes, Ry/au):

     atom    1 type  1   force =     0.00000000    0.00000000    0.00000000
     atom    2 type  2   force =    -0.00000000    0.00000000    0.00000000
     atom    3 type  3   force =     0.00000000   -0.00000000    0.00000000

     Total force =     0.000000     Total SCF correction =     0.000000


     Computing stress (Cartesian axis) and pressure


     negative rho (up, down):  2.384E+00 0.000E+00
          total   stress  (Ry/bohr**3)                   (kbar)     P=********
-208.89733259   0.00000000   0.00000000    **********      0.00      0.00
   0.00000000-208.89733259  -0.00000000          0.00**********     -0.00
   0.00000000  -0.00000000-208.89733259          0.00     -0.00**********


     init_run     :      0.32s CPU      0.78s WALL (       1 calls)
     electrons    :      4.78s CPU     10.24s WALL (       1 calls)
     forces       :      0.06s CPU      0.12s WALL (       1 calls)
     stress       :      0.10s CPU      0.23s WALL (       1 calls)

     Called by init_run:
     wfcinit      :      0.10s CPU      0.24s WALL (       1 calls)
     potinit      :      0.05s CPU      0.22s WALL (       1 calls)
     hinit0       :      0.15s CPU      0.29s WALL (       1 calls)

     Called by electrons:
     c_bands      :      3.70s CPU      7.06s WALL (      12 calls)
     sum_band     :      0.40s CPU      0.90s WALL (      12 calls)
     v_of_rho     :      0.01s CPU      0.02s WALL (      13 calls)
     newd         :      0.03s CPU      0.05s WALL (      13 calls)
     PAW_pot      :      0.67s CPU      2.39s WALL (      13 calls)
     mix_rho      :      0.00s CPU      0.01s WALL (      12 calls)

     Called by c_bands:
     init_us_2    :      0.09s CPU      0.11s WALL (    2970 calls)
     cegterg      :      3.53s CPU      6.71s WALL (    1320 calls)

     Called by sum_band:
     sum_band:bec :      0.01s CPU      0.02s WALL (    1320 calls)
     addusdens    :      0.02s CPU      0.02s WALL (      12 calls)

     Called by *egterg:
     h_psi        :      2.02s CPU      3.92s WALL (    5683 calls)
     s_psi        :      0.14s CPU      0.18s WALL (    5683 calls)
     g_psi        :      0.01s CPU      0.01s WALL (    4253 calls)
     cdiaghg      :      0.82s CPU      1.56s WALL (    5573 calls)

     Called by h_psi:
     h_psi:pot    :      2.01s CPU      3.91s WALL (    5683 calls)
     h_psi:calbec :      0.31s CPU      0.69s WALL (    5683 calls)
     vloc_psi     :      1.54s CPU      3.01s WALL (    5683 calls)
     add_vuspsi   :      0.15s CPU      0.19s WALL (    5683 calls)

     General routines
     calbec       :      0.41s CPU      1.04s WALL (    7553 calls)
     fft          :      0.01s CPU      0.05s WALL (     169 calls)
     ffts         :      0.00s CPU      0.00s WALL (      12 calls)
     fftw         :      1.61s CPU      3.35s WALL (   84114 calls)

     Parallel routines
     fft_scatt_xy :      0.16s CPU      0.21s WALL (   84295 calls)
     fft_scatt_yz :      0.97s CPU      2.57s WALL (   84295 calls)

     PWSCF        :     6.96s CPU        14.28s WALL


   This run was terminated on:  13:19:40  24Oct2018            

=------------------------------------------------------------------------------=
   JOB DONE.
=------------------------------------------------------------------------------=
