
     Program PWSCF v.6.3MaX starts on 23Oct2018 at 14: 9: 3 

     This program is part of the open-source Quantum ESPRESSO suite
     for quantum simulation of materials; please cite
         "P. Giannozzi et al., J. Phys.:Condens. Matter 21 395502 (2009);
         "P. Giannozzi et al., J. Phys.:Condens. Matter 29 465901 (2017);
          URL http://www.quantum-espresso.org", 
     in publications or presentations arising from this work. More details at
     http://www.quantum-espresso.org/quote

     Parallel version (MPI), running on     8 processors

     MPI processes distributed on     1 nodes
     R & G space division:  proc/nbgrp/npool/nimage =       8
     Waiting for input...
     Reading input from standard input
Warning: card &CELL ignored
Warning: card                CELL_DYNAMICS = 'BFGS' , ignored
Warning: card / ignored

     Current dimensions of program PWSCF are:
     Max number of different atomic species (ntypx) = 10
     Max number of k-points (npk) =  40000
     Max angular momentum in pseudopotentials (lmaxx) =  3
               file N.pbe-n-kjpaw_psl.1.0.0.UPF: wavefunction(s)  2S renormalized
               file Na.pbe-spnl-kjpaw_psl.1.0.0.UPF: wavefunction(s)  2P renormalized

     Subspace diagonalization in iterative solution of the eigenvalue problem:
     a serial algorithm will be used


     Parallelization info
     --------------------
     sticks:   dense  smooth     PW     G-vecs:    dense   smooth      PW
     Min         364     364    102                12997    12997    1947
     Max         366     366    103                13000    13000    1950
     Sum        2917    2917    823               103979   103979   15593



     bravais-lattice index     =            2
     lattice parameter (alat)  =      14.6200  a.u.
     unit-cell volume          =     781.2358 (a.u.)^3
     number of atoms/cell      =            3
     number of atomic types    =            3
     number of electrons       =         9.00
     number of Kohn-Sham states=            9
     kinetic-energy cutoff     =      99.0000  Ry
     charge density cutoff     =     396.0000  Ry
     convergence threshold     =      1.0E-09
     mixing beta               =       0.4000
     number of iterations used =            8  plain     mixing
     Exchange-correlation      = SLA PW PBX PBC ( 1  4  3  4 0 0)

     celldm(1)=  14.620000  celldm(2)=   0.000000  celldm(3)=   0.000000
     celldm(4)=   0.000000  celldm(5)=   0.000000  celldm(6)=   0.000000

     crystal axes: (cart. coord. in units of alat)
               a(1) = (  -0.500000   0.000000   0.500000 )  
               a(2) = (   0.000000   0.500000   0.500000 )  
               a(3) = (  -0.500000   0.500000   0.000000 )  

     reciprocal axes: (cart. coord. in units 2 pi/alat)
               b(1) = ( -1.000000 -1.000000  1.000000 )  
               b(2) = (  1.000000  1.000000  1.000000 )  
               b(3) = ( -1.000000  1.000000 -1.000000 )  


     PseudoPot. # 1 for N  read from file:
     ./../ps/N.pbe-n-kjpaw_psl.1.0.0.UPF
     MD5 check sum: 200139db3989ad6e773ddd42f12fc3a8
     Pseudo is Projector augmented-wave + core cor, Zval =  5.0
     Generated using "atomic" code by A. Dal Corso v.6.3
     Shape of augmentation charge: PSQ
     Using radial grid of 1085 points,  4 beta functions with: 
                l(1) =   0
                l(2) =   0
                l(3) =   1
                l(4) =   1
     Q(r) pseudized with 0 coefficients 


     PseudoPot. # 2 for Na read from file:
     ./../ps/Na.pbe-spnl-kjpaw_psl.1.0.0.UPF
     MD5 check sum: 09e782c158f17eb2240230c4112357ee
     Pseudo is Projector augmented-wave + core cor, Zval =  9.0
     Generated using "atomic" code by A. Dal Corso v.6.3
     Shape of augmentation charge: PSQ
     Using radial grid of 1121 points,  4 beta functions with: 
                l(1) =   0
                l(2) =   0
                l(3) =   1
                l(4) =   1
     Q(r) pseudized with 0 coefficients 


     PseudoPot. # 3 for Cs read from file:
     ./../ps/Cs.pbe-spnl-kjpaw_psl.1.0.0.UPF
     MD5 check sum: f98336d4a4407e24c1ab1e3bc36275e8
     Pseudo is Projector augmented-wave + core cor, Zval = -5.0
     Generated using "atomic" code by A. Dal Corso v.6.2.2
     Shape of augmentation charge: PSQ
     Using radial grid of 1251 points,  6 beta functions with: 
                l(1) =   0
                l(2) =   0
                l(3) =   1
                l(4) =   1
                l(5) =   2
                l(6) =   2
     Q(r) pseudized with 0 coefficients 


     atomic species   valence    mass     pseudopotential
        N              5.00    14.00670     N ( 1.00)
        Na             9.00    22.98977     Na( 1.00)
        Cs            -5.00   132.90545     Cs( 1.00)

     24 Sym. Ops. (no inversion) found



   Cartesian axes

     site n.     atom                  positions (alat units)
         1           N   tau(   1) = (   0.0000000   0.0000000   0.0000000  )
         2           Na  tau(   2) = (  -0.2500000   0.2500000   0.2500000  )
         3           Cs  tau(   3) = (  -0.7500000   0.7500000   0.7500000  )

     number of k points=   110  Methfessel-Paxton smearing, width (Ry)=  0.0200

     Number of k-points >= 100: set verbosity='high' to print them.

     Dense  grid:   103979 G-vectors     FFT dimensions: (  72,  72,  72)

     Estimated max dynamical RAM per process >      86.00 MB

     Estimated total dynamical RAM >     687.98 MB

     Check: negative/imaginary core charge=   -0.000001    0.000000

     Initial potential from superposition of free atoms

     starting charge   22.95298, renormalised to    9.00000
     Starting wfcs are   14 randomized atomic wfcs
     Checking if some PAW data can be deallocated... 

     total cpu time spent up to now is       11.3 secs

     Self-consistent Calculation

     iteration #  1     ecut=    99.00 Ry     beta= 0.40
     Davidson diagonalization with overlap
     ethr =  1.00E-02,  avg # of iterations = 12.4

     total cpu time spent up to now is       50.2 secs

     total energy              =    -717.43548149 Ry
     Harris-Foulkes estimate   =    -745.47451153 Ry
     estimated scf accuracy    <      48.71367673 Ry

     iteration #  2     ecut=    99.00 Ry     beta= 0.40
     Davidson diagonalization with overlap
     ethr =  1.00E-02,  avg # of iterations =  3.0

     total cpu time spent up to now is       71.9 secs

     total energy              =    -709.75266285 Ry
     Harris-Foulkes estimate   =    -719.38857564 Ry
     estimated scf accuracy    <      11.17438172 Ry

     iteration #  3     ecut=    99.00 Ry     beta= 0.40
     Davidson diagonalization with overlap
     ethr =  1.00E-02,  avg # of iterations =  9.6

     negative rho (up, down):  9.394E-02 0.000E+00

     total cpu time spent up to now is      108.9 secs

     total energy              =    -712.59891804 Ry
     Harris-Foulkes estimate   =    -713.18624382 Ry
     estimated scf accuracy    <       1.08414885 Ry

     iteration #  4     ecut=    99.00 Ry     beta= 0.40
     Davidson diagonalization with overlap
     ethr =  1.00E-02,  avg # of iterations =  3.5

     negative rho (up, down):  1.862E-01 0.000E+00

     total cpu time spent up to now is      128.9 secs

     total energy              =    -712.73452996 Ry
     Harris-Foulkes estimate   =    -712.92372349 Ry
     estimated scf accuracy    <       0.27848956 Ry

     iteration #  5     ecut=    99.00 Ry     beta= 0.40
     Davidson diagonalization with overlap
     ethr =  3.09E-03,  avg # of iterations =  6.3

     negative rho (up, down):  2.254E-01 0.000E+00

     total cpu time spent up to now is      154.2 secs

     total energy              =    -712.77895959 Ry
     Harris-Foulkes estimate   =    -712.82461519 Ry
     estimated scf accuracy    <       0.08146408 Ry

     iteration #  6     ecut=    99.00 Ry     beta= 0.40
     Davidson diagonalization with overlap
     ethr =  9.05E-04,  avg # of iterations =  2.9

     negative rho (up, down):  2.239E-01 0.000E+00

     total cpu time spent up to now is      173.3 secs

     total energy              =    -712.79518493 Ry
     Harris-Foulkes estimate   =    -712.79519805 Ry
     estimated scf accuracy    <       0.00003947 Ry

     iteration #  7     ecut=    99.00 Ry     beta= 0.40
     Davidson diagonalization with overlap
     ethr =  4.39E-07,  avg # of iterations = 12.7

     negative rho (up, down):  2.239E-01 0.000E+00

     total cpu time spent up to now is      216.9 secs

     total energy              =    -712.79631963 Ry
     Harris-Foulkes estimate   =    -712.79631153 Ry
     estimated scf accuracy    <       0.00001092 Ry

     iteration #  8     ecut=    99.00 Ry     beta= 0.40
     Davidson diagonalization with overlap
     ethr =  1.21E-07,  avg # of iterations =  5.0

     negative rho (up, down):  2.245E-01 0.000E+00

     total cpu time spent up to now is      239.3 secs

     total energy              =    -712.79632582 Ry
     Harris-Foulkes estimate   =    -712.79632900 Ry
     estimated scf accuracy    <       0.00000681 Ry

     iteration #  9     ecut=    99.00 Ry     beta= 0.40
     Davidson diagonalization with overlap
     ethr =  7.56E-08,  avg # of iterations =  2.0

     negative rho (up, down):  2.244E-01 0.000E+00

     total cpu time spent up to now is      257.0 secs

     total energy              =    -712.79632554 Ry
     Harris-Foulkes estimate   =    -712.79632772 Ry
     estimated scf accuracy    <       0.00000140 Ry

     iteration # 10     ecut=    99.00 Ry     beta= 0.40
     Davidson diagonalization with overlap
     ethr =  1.56E-08,  avg # of iterations =  2.0

     negative rho (up, down):  2.244E-01 0.000E+00

     total cpu time spent up to now is      274.7 secs

     total energy              =    -712.79632523 Ry
     Harris-Foulkes estimate   =    -712.79632572 Ry
     estimated scf accuracy    <       0.00000027 Ry

     iteration # 11     ecut=    99.00 Ry     beta= 0.40
     Davidson diagonalization with overlap
     ethr =  2.97E-09,  avg # of iterations =  2.8

     negative rho (up, down):  2.243E-01 0.000E+00

     total cpu time spent up to now is      294.0 secs

     total energy              =    -712.79632528 Ry
     Harris-Foulkes estimate   =    -712.79632532 Ry
     estimated scf accuracy    <       0.00000002 Ry

     iteration # 12     ecut=    99.00 Ry     beta= 0.40
     Davidson diagonalization with overlap
     ethr =  2.17E-10,  avg # of iterations =  3.1

     negative rho (up, down):  2.244E-01 0.000E+00

     total cpu time spent up to now is      316.8 secs

     total energy              =    -712.79632530 Ry
     Harris-Foulkes estimate   =    -712.79632531 Ry
     estimated scf accuracy    <          2.7E-09 Ry

     iteration # 13     ecut=    99.00 Ry     beta= 0.40
     Davidson diagonalization with overlap
     ethr =  2.98E-11,  avg # of iterations =  3.0

     negative rho (up, down):  2.244E-01 0.000E+00

     total cpu time spent up to now is      339.0 secs

     End of self-consistent calculation

     Number of k-points >= 100: set verbosity='high' to print the bands.

     the Fermi energy is  -324.0267 ev

!    total energy              =    -712.79632529 Ry
     Harris-Foulkes estimate   =    -712.79632529 Ry
     estimated scf accuracy    <          2.8E-11 Ry

     total all-electron energy =    -16167.882101 Ry

     The total energy is the sum of the following terms:

     one-electron contribution =    -316.87555033 Ry
     hartree contribution      =      54.82464677 Ry
     xc contribution           =     -28.95953440 Ry
     ewald contribution        =     -36.56760676 Ry
     one-center paw contrib.   =    -385.20962929 Ry
     smearing contrib. (-TS)   =      -0.00865129 Ry

     convergence has been achieved in  13 iterations

     negative rho (up, down):  2.244E-01 0.000E+00

     Forces acting on atoms (cartesian axes, Ry/au):

     atom    1 type  1   force =     0.00000000    0.00000000   -0.00000000
     atom    2 type  2   force =     0.00000000    0.00000000   -0.00000000
     atom    3 type  3   force =     0.00000000    0.00000000    0.00000000

     Total force =     0.000000     Total SCF correction =     0.000000


     Computing stress (Cartesian axis) and pressure


     negative rho (up, down):  2.244E-01 0.000E+00
          total   stress  (Ry/bohr**3)                   (kbar)     P=********
  -0.14341485  -0.00000000   0.00000000     -21097.05     -0.00      0.00
  -0.00000000  -0.14341485  -0.00000000         -0.00 -21097.05     -0.00
   0.00000000  -0.00000000  -0.14341485          0.00     -0.00 -21097.05


     Writing output data file NNaCs.save/

     init_run     :      9.10s CPU      9.64s WALL (       1 calls)
     electrons    :    307.28s CPU    327.77s WALL (       1 calls)
     forces       :      1.47s CPU      1.58s WALL (       1 calls)
     stress       :      3.69s CPU      3.98s WALL (       1 calls)

     Called by init_run:
     wfcinit      :      8.20s CPU      8.56s WALL (       1 calls)
     potinit      :      0.19s CPU      0.24s WALL (       1 calls)
     hinit0       :      0.47s CPU      0.56s WALL (       1 calls)

     Called by electrons:
     c_bands      :    260.42s CPU    276.28s WALL (      13 calls)
     sum_band     :     43.54s CPU     47.05s WALL (      13 calls)
     v_of_rho     :      0.93s CPU      1.02s WALL (      14 calls)
     newd         :      1.67s CPU      1.93s WALL (      14 calls)
     PAW_pot      :      0.68s CPU      1.48s WALL (      14 calls)
     mix_rho      :      0.22s CPU      0.22s WALL (      13 calls)

     Called by c_bands:
     init_us_2    :      3.77s CPU      3.93s WALL (    3190 calls)
     cegterg      :    255.02s CPU    270.58s WALL (    1430 calls)

     Called by sum_band:
     sum_band:bec :      0.04s CPU      0.04s WALL (    1430 calls)
     addusdens    :      1.30s CPU      1.62s WALL (      13 calls)

     Called by *egterg:
     h_psi        :    234.62s CPU    249.19s WALL (    9046 calls)
     s_psi        :      6.40s CPU      6.71s WALL (    9046 calls)
     g_psi        :      0.28s CPU      0.29s WALL (    7506 calls)
     cdiaghg      :      1.81s CPU      1.91s WALL (    8936 calls)

     Called by h_psi:
     h_psi:pot    :    233.28s CPU    247.79s WALL (    9046 calls)
     h_psi:calbec :     10.21s CPU     10.98s WALL (    9046 calls)
     vloc_psi     :    215.22s CPU    228.39s WALL (    9046 calls)
     add_vuspsi   :      7.76s CPU      8.35s WALL (    9046 calls)

     General routines
     calbec       :     13.25s CPU     14.32s WALL (   11026 calls)
     fft          :      0.67s CPU      0.76s WALL (     180 calls)
     ffts         :      0.06s CPU      0.06s WALL (      13 calls)
     fftw         :    176.82s CPU    188.28s WALL (  107092 calls)

     Parallel routines
     fft_scatt_xy :     35.10s CPU     37.20s WALL (  107285 calls)
     fft_scatt_yz :     29.98s CPU     33.45s WALL (  107285 calls)

     PWSCF        :  5m23.32s CPU     5m44.90s WALL


   This run was terminated on:  14:14:48  23Oct2018            

=------------------------------------------------------------------------------=
   JOB DONE.
=------------------------------------------------------------------------------=
