
     Program PWSCF v.6.3MaX starts on 23Oct2018 at 13:15:59 

     This program is part of the open-source Quantum ESPRESSO suite
     for quantum simulation of materials; please cite
         "P. Giannozzi et al., J. Phys.:Condens. Matter 21 395502 (2009);
         "P. Giannozzi et al., J. Phys.:Condens. Matter 29 465901 (2017);
          URL http://www.quantum-espresso.org", 
     in publications or presentations arising from this work. More details at
     http://www.quantum-espresso.org/quote

     Parallel version (MPI), running on     8 processors

     MPI processes distributed on     1 nodes
     R & G space division:  proc/nbgrp/npool/nimage =       8
     Waiting for input...
     Reading input from standard input
Warning: card &CELL ignored
Warning: card                CELL_DYNAMICS = 'BFGS' , ignored
Warning: card / ignored

     Current dimensions of program PWSCF are:
     Max number of different atomic species (ntypx) = 10
     Max number of k-points (npk) =  40000
     Max angular momentum in pseudopotentials (lmaxx) =  3
               file N.pbe-n-kjpaw_psl.1.0.0.UPF: wavefunction(s)  2S renormalized
               file Na.pbe-spnl-kjpaw_psl.1.0.0.UPF: wavefunction(s)  2P renormalized

     Subspace diagonalization in iterative solution of the eigenvalue problem:
     a serial algorithm will be used


     Parallelization info
     --------------------
     sticks:   dense  smooth     PW     G-vecs:    dense   smooth      PW
     Min         203     203     59                 5392     5392     856
     Max         204     204     60                 5395     5395     859
     Sum        1627    1627    475                43143    43143    6855



     bravais-lattice index     =            2
     lattice parameter (alat)  =      14.6200  a.u.
     unit-cell volume          =     781.2358 (a.u.)^3
     number of atoms/cell      =            3
     number of atomic types    =            3
     number of electrons       =         9.00
     number of Kohn-Sham states=            9
     kinetic-energy cutoff     =      55.0000  Ry
     charge density cutoff     =     220.0000  Ry
     convergence threshold     =      1.0E-09
     mixing beta               =       0.4000
     number of iterations used =            8  plain     mixing
     Exchange-correlation      = SLA PW PBX PBC ( 1  4  3  4 0 0)

     celldm(1)=  14.620000  celldm(2)=   0.000000  celldm(3)=   0.000000
     celldm(4)=   0.000000  celldm(5)=   0.000000  celldm(6)=   0.000000

     crystal axes: (cart. coord. in units of alat)
               a(1) = (  -0.500000   0.000000   0.500000 )  
               a(2) = (   0.000000   0.500000   0.500000 )  
               a(3) = (  -0.500000   0.500000   0.000000 )  

     reciprocal axes: (cart. coord. in units 2 pi/alat)
               b(1) = ( -1.000000 -1.000000  1.000000 )  
               b(2) = (  1.000000  1.000000  1.000000 )  
               b(3) = ( -1.000000  1.000000 -1.000000 )  


     PseudoPot. # 1 for N  read from file:
     ./../ps/N.pbe-n-kjpaw_psl.1.0.0.UPF
     MD5 check sum: 200139db3989ad6e773ddd42f12fc3a8
     Pseudo is Projector augmented-wave + core cor, Zval =  5.0
     Generated using "atomic" code by A. Dal Corso v.6.3
     Shape of augmentation charge: PSQ
     Using radial grid of 1085 points,  4 beta functions with: 
                l(1) =   0
                l(2) =   0
                l(3) =   1
                l(4) =   1
     Q(r) pseudized with 0 coefficients 


     PseudoPot. # 2 for Na read from file:
     ./../ps/Na.pbe-spnl-kjpaw_psl.1.0.0.UPF
     MD5 check sum: 09e782c158f17eb2240230c4112357ee
     Pseudo is Projector augmented-wave + core cor, Zval =  9.0
     Generated using "atomic" code by A. Dal Corso v.6.3
     Shape of augmentation charge: PSQ
     Using radial grid of 1121 points,  4 beta functions with: 
                l(1) =   0
                l(2) =   0
                l(3) =   1
                l(4) =   1
     Q(r) pseudized with 0 coefficients 


     PseudoPot. # 3 for Cs read from file:
     ./../ps/Cs.pbe-spnl-kjpaw_psl.1.0.0.UPF
     MD5 check sum: f98336d4a4407e24c1ab1e3bc36275e8
     Pseudo is Projector augmented-wave + core cor, Zval = -5.0
     Generated using "atomic" code by A. Dal Corso v.6.2.2
     Shape of augmentation charge: PSQ
     Using radial grid of 1251 points,  6 beta functions with: 
                l(1) =   0
                l(2) =   0
                l(3) =   1
                l(4) =   1
                l(5) =   2
                l(6) =   2
     Q(r) pseudized with 0 coefficients 


     atomic species   valence    mass     pseudopotential
        N              5.00    14.00670     N ( 1.00)
        Na             9.00    22.98977     Na( 1.00)
        Cs            -5.00   132.90545     Cs( 1.00)

     24 Sym. Ops. (no inversion) found



   Cartesian axes

     site n.     atom                  positions (alat units)
         1           N   tau(   1) = (   0.0000000   0.0000000   0.0000000  )
         2           Na  tau(   2) = (  -0.2500000   0.2500000   0.2500000  )
         3           Cs  tau(   3) = (  -0.7500000   0.7500000   0.7500000  )

     number of k points=   110  Methfessel-Paxton smearing, width (Ry)=  0.0200

     Number of k-points >= 100: set verbosity='high' to print them.

     Dense  grid:    43143 G-vectors     FFT dimensions: (  50,  50,  50)

     Estimated max dynamical RAM per process >      39.22 MB

     Estimated total dynamical RAM >     313.73 MB

     Check: negative/imaginary core charge=   -0.000009    0.000000

     Initial potential from superposition of free atoms

     starting charge   22.95298, renormalised to    9.00000
     Starting wfcs are   14 randomized atomic wfcs
     Checking if some PAW data can be deallocated... 

     total cpu time spent up to now is        3.9 secs

     Self-consistent Calculation

     iteration #  1     ecut=    55.00 Ry     beta= 0.40
     Davidson diagonalization with overlap
     ethr =  1.00E-02,  avg # of iterations = 12.2

     total cpu time spent up to now is       11.2 secs

     total energy              =    -717.58616626 Ry
     Harris-Foulkes estimate   =    -745.39014904 Ry
     estimated scf accuracy    <      48.21971971 Ry

     iteration #  2     ecut=    55.00 Ry     beta= 0.40
     Davidson diagonalization with overlap
     ethr =  1.00E-02,  avg # of iterations =  3.0

     total cpu time spent up to now is       15.0 secs

     total energy              =    -709.67225811 Ry
     Harris-Foulkes estimate   =    -719.44588230 Ry
     estimated scf accuracy    <      11.25642991 Ry

     iteration #  3     ecut=    55.00 Ry     beta= 0.40
     Davidson diagonalization with overlap
     ethr =  1.00E-02,  avg # of iterations =  9.9

     negative rho (up, down):  9.277E-02 0.000E+00

     total cpu time spent up to now is       22.1 secs

     total energy              =    -712.54964030 Ry
     Harris-Foulkes estimate   =    -713.20459302 Ry
     estimated scf accuracy    <       1.15732450 Ry

     iteration #  4     ecut=    55.00 Ry     beta= 0.40
     Davidson diagonalization with overlap
     ethr =  1.00E-02,  avg # of iterations =  2.8

     negative rho (up, down):  1.813E-01 0.000E+00

     total cpu time spent up to now is       25.5 secs

     total energy              =    -712.71632628 Ry
     Harris-Foulkes estimate   =    -712.91676977 Ry
     estimated scf accuracy    <       0.29196736 Ry

     iteration #  5     ecut=    55.00 Ry     beta= 0.40
     Davidson diagonalization with overlap
     ethr =  3.24E-03,  avg # of iterations =  6.0

     negative rho (up, down):  2.261E-01 0.000E+00

     total cpu time spent up to now is       30.1 secs

     total energy              =    -712.75789432 Ry
     Harris-Foulkes estimate   =    -712.82474213 Ry
     estimated scf accuracy    <       0.11460215 Ry

     iteration #  6     ecut=    55.00 Ry     beta= 0.40
     Davidson diagonalization with overlap
     ethr =  1.27E-03,  avg # of iterations =  2.4

     negative rho (up, down):  2.249E-01 0.000E+00

     total cpu time spent up to now is       33.3 secs

     total energy              =    -712.77977189 Ry
     Harris-Foulkes estimate   =    -712.77978042 Ry
     estimated scf accuracy    <       0.00003734 Ry

     iteration #  7     ecut=    55.00 Ry     beta= 0.40
     Davidson diagonalization with overlap
     ethr =  4.15E-07,  avg # of iterations = 12.8

     negative rho (up, down):  2.235E-01 0.000E+00

     total cpu time spent up to now is       42.1 secs

     total energy              =    -712.78100502 Ry
     Harris-Foulkes estimate   =    -712.78104182 Ry
     estimated scf accuracy    <       0.00003200 Ry

     iteration #  8     ecut=    55.00 Ry     beta= 0.40
     Davidson diagonalization with overlap
     ethr =  3.56E-07,  avg # of iterations =  2.9

     negative rho (up, down):  2.246E-01 0.000E+00

     total cpu time spent up to now is       45.3 secs

     total energy              =    -712.78101813 Ry
     Harris-Foulkes estimate   =    -712.78102361 Ry
     estimated scf accuracy    <       0.00000894 Ry

     iteration #  9     ecut=    55.00 Ry     beta= 0.40
     Davidson diagonalization with overlap
     ethr =  9.94E-08,  avg # of iterations =  2.0

     negative rho (up, down):  2.245E-01 0.000E+00

     total cpu time spent up to now is       48.4 secs

     total energy              =    -712.78101796 Ry
     Harris-Foulkes estimate   =    -712.78102005 Ry
     estimated scf accuracy    <       0.00000183 Ry

     iteration # 10     ecut=    55.00 Ry     beta= 0.40
     Davidson diagonalization with overlap
     ethr =  2.03E-08,  avg # of iterations =  2.0

     negative rho (up, down):  2.244E-01 0.000E+00

     total cpu time spent up to now is       51.4 secs

     total energy              =    -712.78101751 Ry
     Harris-Foulkes estimate   =    -712.78101814 Ry
     estimated scf accuracy    <       0.00000042 Ry

     iteration # 11     ecut=    55.00 Ry     beta= 0.40
     Davidson diagonalization with overlap
     ethr =  4.72E-09,  avg # of iterations =  2.9

     negative rho (up, down):  2.244E-01 0.000E+00

     total cpu time spent up to now is       54.9 secs

     total energy              =    -712.78101765 Ry
     Harris-Foulkes estimate   =    -712.78101765 Ry
     estimated scf accuracy    <       0.00000002 Ry

     iteration # 12     ecut=    55.00 Ry     beta= 0.40
     Davidson diagonalization with overlap
     ethr =  1.99E-10,  avg # of iterations =  3.1

     negative rho (up, down):  2.244E-01 0.000E+00

     total cpu time spent up to now is       58.3 secs

     total energy              =    -712.78101763 Ry
     Harris-Foulkes estimate   =    -712.78101765 Ry
     estimated scf accuracy    <       0.00000001 Ry

     iteration # 13     ecut=    55.00 Ry     beta= 0.40
     Davidson diagonalization with overlap
     ethr =  1.58E-10,  avg # of iterations =  2.8

     negative rho (up, down):  2.244E-01 0.000E+00

     total cpu time spent up to now is       61.6 secs

     End of self-consistent calculation

     Number of k-points >= 100: set verbosity='high' to print the bands.

     the Fermi energy is  -323.8758 ev

!    total energy              =    -712.78101764 Ry
     Harris-Foulkes estimate   =    -712.78101764 Ry
     estimated scf accuracy    <          7.8E-10 Ry

     total all-electron energy =    -16167.866793 Ry

     The total energy is the sum of the following terms:

     one-electron contribution =    -316.86708093 Ry
     hartree contribution      =      54.83277428 Ry
     xc contribution           =     -28.96055538 Ry
     ewald contribution        =     -36.56760685 Ry
     one-center paw contrib.   =    -385.20989810 Ry
     smearing contrib. (-TS)   =      -0.00865066 Ry

     convergence has been achieved in  13 iterations

     negative rho (up, down):  2.244E-01 0.000E+00

     Forces acting on atoms (cartesian axes, Ry/au):

     atom    1 type  1   force =     0.00000000    0.00000000   -0.00000000
     atom    2 type  2   force =     0.00000000    0.00000000    0.00000000
     atom    3 type  3   force =     0.00000000    0.00000000   -0.00000000

     Total force =     0.000000     Total SCF correction =     0.000000


     Computing stress (Cartesian axis) and pressure


     negative rho (up, down):  2.244E-01 0.000E+00
          total   stress  (Ry/bohr**3)                   (kbar)     P=********
  -0.14352635   0.00000000   0.00000000     -21113.45      0.00      0.00
   0.00000000  -0.14352635  -0.00000000          0.00 -21113.45     -0.00
   0.00000000  -0.00000000  -0.14352635          0.00     -0.00 -21113.45


     Writing output data file NNaCs.save/

     init_run     :      1.81s CPU      1.98s WALL (       1 calls)
     electrons    :     54.53s CPU     57.68s WALL (       1 calls)
     forces       :      0.50s CPU      0.53s WALL (       1 calls)
     stress       :      1.28s CPU      1.30s WALL (       1 calls)

     Called by init_run:
     wfcinit      :      1.33s CPU      1.37s WALL (       1 calls)
     potinit      :      0.09s CPU      0.17s WALL (       1 calls)
     hinit0       :      0.30s CPU      0.34s WALL (       1 calls)

     Called by electrons:
     c_bands      :     46.57s CPU     48.54s WALL (      13 calls)
     sum_band     :      6.32s CPU      6.58s WALL (      13 calls)
     v_of_rho     :      0.20s CPU      0.25s WALL (      14 calls)
     newd         :      0.75s CPU      0.75s WALL (      14 calls)
     PAW_pot      :      0.72s CPU      1.65s WALL (      14 calls)
     mix_rho      :      0.06s CPU      0.07s WALL (      13 calls)

     Called by c_bands:
     init_us_2    :      1.68s CPU      1.76s WALL (    3190 calls)
     cegterg      :     44.30s CPU     46.15s WALL (    1430 calls)

     Called by sum_band:
     sum_band:bec :      0.04s CPU      0.04s WALL (    1430 calls)
     addusdens    :      0.62s CPU      0.64s WALL (      13 calls)

     Called by *egterg:
     h_psi        :     32.57s CPU     34.05s WALL (    8692 calls)
     s_psi        :      2.49s CPU      2.57s WALL (    8692 calls)
     g_psi        :      0.13s CPU      0.14s WALL (    7152 calls)
     cdiaghg      :      1.81s CPU      1.87s WALL (    8582 calls)

     Called by h_psi:
     h_psi:pot    :     32.21s CPU     33.68s WALL (    8692 calls)
     h_psi:calbec :      4.09s CPU      4.25s WALL (    8692 calls)
     vloc_psi     :     25.19s CPU     26.39s WALL (    8692 calls)
     add_vuspsi   :      2.89s CPU      2.99s WALL (    8692 calls)

     General routines
     calbec       :      5.21s CPU      5.42s WALL (   10672 calls)
     fft          :      0.09s CPU      0.11s WALL (     180 calls)
     ffts         :      0.01s CPU      0.01s WALL (      13 calls)
     fftw         :     22.94s CPU     24.08s WALL (  104292 calls)

     Parallel routines
     fft_scatt_xy :      3.62s CPU      3.74s WALL (  104485 calls)
     fft_scatt_yz :      4.96s CPU      5.49s WALL (  104485 calls)

     PWSCF        :  1m 0.01s CPU     1m 3.56s WALL


   This run was terminated on:  13:17: 3  23Oct2018            

=------------------------------------------------------------------------------=
   JOB DONE.
=------------------------------------------------------------------------------=
