
     Program PWSCF v.6.3MaX starts on 24Oct2018 at  7:30:29 

     This program is part of the open-source Quantum ESPRESSO suite
     for quantum simulation of materials; please cite
         "P. Giannozzi et al., J. Phys.:Condens. Matter 21 395502 (2009);
         "P. Giannozzi et al., J. Phys.:Condens. Matter 29 465901 (2017);
          URL http://www.quantum-espresso.org", 
     in publications or presentations arising from this work. More details at
     http://www.quantum-espresso.org/quote

     Parallel version (MPI), running on     8 processors

     MPI processes distributed on     1 nodes
     R & G space division:  proc/nbgrp/npool/nimage =       8
     Waiting for input...
     Reading input from standard input
Warning: card &CELL ignored
Warning: card                CELL_DYNAMICS = 'BFGS' , ignored
Warning: card / ignored

     Current dimensions of program PWSCF are:
     Max number of different atomic species (ntypx) = 10
     Max number of k-points (npk) =  40000
     Max angular momentum in pseudopotentials (lmaxx) =  3
     Message from routine iosys:
     minimal I/O required, wf_collect reset to FALSE
               file N.pbe-n-kjpaw_psl.1.0.0.UPF: wavefunction(s)  2S renormalized
               file Na.pbe-spnl-kjpaw_psl.1.0.0.UPF: wavefunction(s)  2P renormalized

     Subspace diagonalization in iterative solution of the eigenvalue problem:
     a serial algorithm will be used


     Parallelization info
     --------------------
     sticks:   dense  smooth     PW     G-vecs:    dense   smooth      PW
     Min         137     137     42                 3005     3005     501
     Max         138     138     43                 3006     3006     503
     Sum        1099    1099    337                24045    24045    4015



     bravais-lattice index     =            2
     lattice parameter (alat)  =      10.0000  a.u.
     unit-cell volume          =     250.0000 (a.u.)^3
     number of atoms/cell      =            3
     number of atomic types    =            3
     number of electrons       =         9.00
     number of Kohn-Sham states=            9
     kinetic-energy cutoff     =      80.0000  Ry
     charge density cutoff     =     320.0000  Ry
     convergence threshold     =      1.0E-09
     mixing beta               =       0.4000
     number of iterations used =            8  plain     mixing
     Exchange-correlation      = SLA PW PBX PBC ( 1  4  3  4 0 0)

     celldm(1)=  10.000000  celldm(2)=   0.000000  celldm(3)=   0.000000
     celldm(4)=   0.000000  celldm(5)=   0.000000  celldm(6)=   0.000000

     crystal axes: (cart. coord. in units of alat)
               a(1) = (  -0.500000   0.000000   0.500000 )  
               a(2) = (   0.000000   0.500000   0.500000 )  
               a(3) = (  -0.500000   0.500000   0.000000 )  

     reciprocal axes: (cart. coord. in units 2 pi/alat)
               b(1) = ( -1.000000 -1.000000  1.000000 )  
               b(2) = (  1.000000  1.000000  1.000000 )  
               b(3) = ( -1.000000  1.000000 -1.000000 )  


     PseudoPot. # 1 for N  read from file:
     ./ps/N.pbe-n-kjpaw_psl.1.0.0.UPF
     MD5 check sum: 200139db3989ad6e773ddd42f12fc3a8
     Pseudo is Projector augmented-wave + core cor, Zval =  5.0
     Generated using "atomic" code by A. Dal Corso v.6.3
     Shape of augmentation charge: PSQ
     Using radial grid of 1085 points,  4 beta functions with: 
                l(1) =   0
                l(2) =   0
                l(3) =   1
                l(4) =   1
     Q(r) pseudized with 0 coefficients 


     PseudoPot. # 2 for Na read from file:
     ./ps/Na.pbe-spnl-kjpaw_psl.1.0.0.UPF
     MD5 check sum: 09e782c158f17eb2240230c4112357ee
     Pseudo is Projector augmented-wave + core cor, Zval =  9.0
     Generated using "atomic" code by A. Dal Corso v.6.3
     Shape of augmentation charge: PSQ
     Using radial grid of 1121 points,  4 beta functions with: 
                l(1) =   0
                l(2) =   0
                l(3) =   1
                l(4) =   1
     Q(r) pseudized with 0 coefficients 


     PseudoPot. # 3 for Cs read from file:
     ./ps/Cs.pbe-spnl-kjpaw_psl.1.0.0.UPF
     MD5 check sum: f98336d4a4407e24c1ab1e3bc36275e8
     Pseudo is Projector augmented-wave + core cor, Zval = -5.0
     Generated using "atomic" code by A. Dal Corso v.6.2.2
     Shape of augmentation charge: PSQ
     Using radial grid of 1251 points,  6 beta functions with: 
                l(1) =   0
                l(2) =   0
                l(3) =   1
                l(4) =   1
                l(5) =   2
                l(6) =   2
     Q(r) pseudized with 0 coefficients 


     atomic species   valence    mass     pseudopotential
        N              5.00    14.00670     N ( 1.00)
        Na             9.00    22.98977     Na( 1.00)
        Cs            -5.00   132.90545     Cs( 1.00)

     24 Sym. Ops. (no inversion) found



   Cartesian axes

     site n.     atom                  positions (alat units)
         1           N   tau(   1) = (   0.0000000   0.0000000   0.0000000  )
         2           Na  tau(   2) = (  -0.5000000   0.5000000   0.5000000  )
         3           Cs  tau(   3) = (  -0.7500000   0.7500000   0.7500000  )

     number of k points=   110  Methfessel-Paxton smearing, width (Ry)=  0.0200

     Number of k-points >= 100: set verbosity='high' to print them.

     Dense  grid:    24045 G-vectors     FFT dimensions: (  45,  45,  45)

     Estimated max dynamical RAM per process >      24.28 MB

     Estimated total dynamical RAM >     194.25 MB

     Check: negative/imaginary core charge=   -0.000002    0.000000

     Initial potential from superposition of free atoms

     starting charge   22.95298, renormalised to    9.00000
     Starting wfcs are   14 randomized atomic wfcs
     Checking if some PAW data can be deallocated... 

     total cpu time spent up to now is        4.4 secs

     Self-consistent Calculation

     iteration #  1     ecut=    80.00 Ry     beta= 0.40
     Davidson diagonalization with overlap
     ethr =  1.00E-02,  avg # of iterations = 11.1

     total cpu time spent up to now is       13.5 secs

     total energy              =   -1122.41693778 Ry
     Harris-Foulkes estimate   =   -1142.23277649 Ry
     estimated scf accuracy    <      34.52196463 Ry

     iteration #  2     ecut=    80.00 Ry     beta= 0.40
     Davidson diagonalization with overlap
     ethr =  1.00E-02,  avg # of iterations =  5.4

     total cpu time spent up to now is       19.0 secs

     total energy              =   -1125.04805675 Ry
     Harris-Foulkes estimate   =   -1126.79116062 Ry
     estimated scf accuracy    <       2.86098122 Ry

     iteration #  3     ecut=    80.00 Ry     beta= 0.40
     Davidson diagonalization with overlap
     ethr =  1.00E-02,  avg # of iterations =  2.0

     total cpu time spent up to now is       22.5 secs

     total energy              =   -1122.56816649 Ry
     Harris-Foulkes estimate   =   -1126.61338559 Ry
     estimated scf accuracy    <      15.73631703 Ry

     iteration #  4     ecut=    80.00 Ry     beta= 0.40
     Davidson diagonalization with overlap
     ethr =  1.00E-02,  avg # of iterations =  2.0

     total cpu time spent up to now is       26.2 secs

     total energy              =   -1125.95349004 Ry
     Harris-Foulkes estimate   =   -1126.28166206 Ry
     estimated scf accuracy    <       1.73663933 Ry

     iteration #  5     ecut=    80.00 Ry     beta= 0.40
     Davidson diagonalization with overlap
     ethr =  1.00E-02,  avg # of iterations =  1.1

     negative rho (up, down):  1.833E-04 0.000E+00

     total cpu time spent up to now is       29.6 secs

     total energy              =   -1125.77836011 Ry
     Harris-Foulkes estimate   =   -1125.98794667 Ry
     estimated scf accuracy    <       0.94059802 Ry

     iteration #  6     ecut=    80.00 Ry     beta= 0.40
     Davidson diagonalization with overlap
     ethr =  1.00E-02,  avg # of iterations =  1.0

     negative rho (up, down):  1.974E-04 0.000E+00

     total cpu time spent up to now is       32.8 secs

     total energy              =   -1125.91470849 Ry
     Harris-Foulkes estimate   =   -1125.91463238 Ry
     estimated scf accuracy    <       0.00132549 Ry

     iteration #  7     ecut=    80.00 Ry     beta= 0.40
     Davidson diagonalization with overlap
     ethr =  1.47E-05,  avg # of iterations =  7.4

     negative rho (up, down):  5.225E-04 0.000E+00

     total cpu time spent up to now is       39.6 secs

     total energy              =   -1125.91973460 Ry
     Harris-Foulkes estimate   =   -1125.91899981 Ry
     estimated scf accuracy    <       0.00146685 Ry

     iteration #  8     ecut=    80.00 Ry     beta= 0.40
     Davidson diagonalization with overlap
     ethr =  1.47E-05,  avg # of iterations =  2.1

     negative rho (up, down):  5.226E-04 0.000E+00

     total cpu time spent up to now is       43.1 secs

     total energy              =   -1125.91811719 Ry
     Harris-Foulkes estimate   =   -1125.92003403 Ry
     estimated scf accuracy    <       0.00511602 Ry

     iteration #  9     ecut=    80.00 Ry     beta= 0.40
     Davidson diagonalization with overlap
     ethr =  1.47E-05,  avg # of iterations =  3.0

     negative rho (up, down):  3.934E-04 0.000E+00

     total cpu time spent up to now is       47.4 secs

     total energy              =   -1125.92009917 Ry
     Harris-Foulkes estimate   =   -1125.91930254 Ry
     estimated scf accuracy    <       0.00159630 Ry

     iteration # 10     ecut=    80.00 Ry     beta= 0.40
     Davidson diagonalization with overlap
     ethr =  1.47E-05,  avg # of iterations =  1.0

     negative rho (up, down):  3.879E-04 0.000E+00

     total cpu time spent up to now is       50.2 secs

     total energy              =   -1125.92014206 Ry
     Harris-Foulkes estimate   =   -1125.92018065 Ry
     estimated scf accuracy    <       0.00384881 Ry

     iteration # 11     ecut=    80.00 Ry     beta= 0.40
     Davidson diagonalization with overlap
     ethr =  1.47E-05,  avg # of iterations =  1.0

     negative rho (up, down):  4.167E-04 0.000E+00

     total cpu time spent up to now is       53.1 secs

     total energy              =   -1125.92020106 Ry
     Harris-Foulkes estimate   =   -1125.92015673 Ry
     estimated scf accuracy    <       0.00370173 Ry

     iteration # 12     ecut=    80.00 Ry     beta= 0.40
     Davidson diagonalization with overlap
     ethr =  1.47E-05,  avg # of iterations =  1.0

     negative rho (up, down):  4.551E-04 0.000E+00

     total cpu time spent up to now is       56.0 secs

     total energy              =   -1125.91975370 Ry
     Harris-Foulkes estimate   =   -1125.92020728 Ry
     estimated scf accuracy    <       0.00386218 Ry

     iteration # 13     ecut=    80.00 Ry     beta= 0.40
     Davidson diagonalization with overlap
     ethr =  1.47E-05,  avg # of iterations =  1.0

     negative rho (up, down):  3.520E-04 0.000E+00

     total cpu time spent up to now is       58.8 secs

     total energy              =   -1125.92127115 Ry
     Harris-Foulkes estimate   =   -1125.91976746 Ry
     estimated scf accuracy    <       0.00266338 Ry

     iteration # 14     ecut=    80.00 Ry     beta= 0.40
     Davidson diagonalization with overlap
     ethr =  1.47E-05,  avg # of iterations =  2.0

     negative rho (up, down):  3.455E-04 0.000E+00

     total cpu time spent up to now is       62.1 secs

     total energy              =   -1125.92192626 Ry
     Harris-Foulkes estimate   =   -1125.92147563 Ry
     estimated scf accuracy    <       0.00843052 Ry

     iteration # 15     ecut=    80.00 Ry     beta= 0.40
     Davidson diagonalization with overlap
     ethr =  1.47E-05,  avg # of iterations =  1.0

     negative rho (up, down):  6.768E-04 0.000E+00

     total cpu time spent up to now is       65.0 secs

     total energy              =   -1125.91625639 Ry
     Harris-Foulkes estimate   =   -1125.92194428 Ry
     estimated scf accuracy    <       0.00966143 Ry

     iteration # 16     ecut=    80.00 Ry     beta= 0.40
     Davidson diagonalization with overlap
     ethr =  1.47E-05,  avg # of iterations =  3.5

     negative rho (up, down):  6.843E-04 0.000E+00

     total cpu time spent up to now is       69.2 secs

     total energy              =   -1125.92043636 Ry
     Harris-Foulkes estimate   =   -1125.91999839 Ry
     estimated scf accuracy    <       0.00311467 Ry

     iteration # 17     ecut=    80.00 Ry     beta= 0.40
     Davidson diagonalization with overlap
     ethr =  1.47E-05,  avg # of iterations =  1.0

     negative rho (up, down):  6.529E-04 0.000E+00

     total cpu time spent up to now is       72.1 secs

     total energy              =   -1125.92247785 Ry
     Harris-Foulkes estimate   =   -1125.92047206 Ry
     estimated scf accuracy    <       0.00430746 Ry

     iteration # 18     ecut=    80.00 Ry     beta= 0.40
     Davidson diagonalization with overlap
     ethr =  1.47E-05,  avg # of iterations =  2.0

     negative rho (up, down):  6.686E-04 0.000E+00

     total cpu time spent up to now is       75.6 secs

     total energy              =   -1125.91905510 Ry
     Harris-Foulkes estimate   =   -1125.92288721 Ry
     estimated scf accuracy    <       0.01193059 Ry

     iteration # 19     ecut=    80.00 Ry     beta= 0.40
     Davidson diagonalization with overlap
     ethr =  1.47E-05,  avg # of iterations =  3.0

     negative rho (up, down):  6.677E-04 0.000E+00

     total cpu time spent up to now is       79.5 secs

     total energy              =   -1125.92135313 Ry
     Harris-Foulkes estimate   =   -1125.91976324 Ry
     estimated scf accuracy    <       0.00250856 Ry

     iteration # 20     ecut=    80.00 Ry     beta= 0.40
     Davidson diagonalization with overlap
     ethr =  1.47E-05,  avg # of iterations =  2.0

     negative rho (up, down):  6.404E-04 0.000E+00

     total cpu time spent up to now is       82.7 secs

     total energy              =   -1125.91795580 Ry
     Harris-Foulkes estimate   =   -1125.92168153 Ry
     estimated scf accuracy    <       0.00819375 Ry

     iteration # 21     ecut=    80.00 Ry     beta= 0.40
     Davidson diagonalization with overlap
     ethr =  1.47E-05,  avg # of iterations =  3.0

     negative rho (up, down):  6.501E-04 0.000E+00

     total cpu time spent up to now is       86.3 secs

     total energy              =   -1125.91893438 Ry
     Harris-Foulkes estimate   =   -1125.91904174 Ry
     estimated scf accuracy    <       0.00024744 Ry

     iteration # 22     ecut=    80.00 Ry     beta= 0.40
     Davidson diagonalization with overlap
     ethr =  2.75E-06,  avg # of iterations =  2.8

     negative rho (up, down):  6.445E-04 0.000E+00

     total cpu time spent up to now is       89.8 secs

     total energy              =   -1125.91897861 Ry
     Harris-Foulkes estimate   =   -1125.91898353 Ry
     estimated scf accuracy    <       0.00001208 Ry

     iteration # 23     ecut=    80.00 Ry     beta= 0.40
     Davidson diagonalization with overlap
     ethr =  1.34E-07,  avg # of iterations =  3.2

     negative rho (up, down):  6.392E-04 0.000E+00

     total cpu time spent up to now is       93.6 secs

     total energy              =   -1125.91898716 Ry
     Harris-Foulkes estimate   =   -1125.91898401 Ry
     estimated scf accuracy    <       0.00000061 Ry

     iteration # 24     ecut=    80.00 Ry     beta= 0.40
     Davidson diagonalization with overlap
     ethr =  6.83E-09,  avg # of iterations =  4.0

     negative rho (up, down):  6.466E-04 0.000E+00

     total cpu time spent up to now is       98.6 secs

     total energy              =   -1125.91898329 Ry
     Harris-Foulkes estimate   =   -1125.91899119 Ry
     estimated scf accuracy    <       0.00001979 Ry

     iteration # 25     ecut=    80.00 Ry     beta= 0.40
     Davidson diagonalization with overlap
     ethr =  6.83E-09,  avg # of iterations =  3.0

     negative rho (up, down):  6.402E-04 0.000E+00

     total cpu time spent up to now is      102.6 secs

     total energy              =   -1125.91898704 Ry
     Harris-Foulkes estimate   =   -1125.91898502 Ry
     estimated scf accuracy    <       0.00000271 Ry

     iteration # 26     ecut=    80.00 Ry     beta= 0.40
     Davidson diagonalization with overlap
     ethr =  6.83E-09,  avg # of iterations =  3.0

     negative rho (up, down):  6.698E-04 0.000E+00

     total cpu time spent up to now is      106.5 secs

     total energy              =   -1125.91898257 Ry
     Harris-Foulkes estimate   =   -1125.91898751 Ry
     estimated scf accuracy    <       0.00001003 Ry

     iteration # 27     ecut=    80.00 Ry     beta= 0.40
     Davidson diagonalization with overlap
     ethr =  6.83E-09,  avg # of iterations =  3.0

     negative rho (up, down):  6.911E-04 0.000E+00

     total cpu time spent up to now is      110.5 secs

     total energy              =   -1125.91898418 Ry
     Harris-Foulkes estimate   =   -1125.91898420 Ry
     estimated scf accuracy    <       0.00000031 Ry

     iteration # 28     ecut=    80.00 Ry     beta= 0.40
     Davidson diagonalization with overlap
     ethr =  3.48E-09,  avg # of iterations =  3.0

     negative rho (up, down):  6.550E-04 0.000E+00

     total cpu time spent up to now is      114.4 secs

     total energy              =   -1125.91898401 Ry
     Harris-Foulkes estimate   =   -1125.91898439 Ry
     estimated scf accuracy    <       0.00000170 Ry

     iteration # 29     ecut=    80.00 Ry     beta= 0.40
     Davidson diagonalization with overlap
     ethr =  3.48E-09,  avg # of iterations =  3.0

     negative rho (up, down):  6.606E-04 0.000E+00

     total cpu time spent up to now is      118.3 secs

     total energy              =   -1125.91898415 Ry
     Harris-Foulkes estimate   =   -1125.91898425 Ry
     estimated scf accuracy    <       0.00000023 Ry

     iteration # 30     ecut=    80.00 Ry     beta= 0.40
     Davidson diagonalization with overlap
     ethr =  2.55E-09,  avg # of iterations =  2.0

     negative rho (up, down):  6.559E-04 0.000E+00

     total cpu time spent up to now is      121.6 secs

     total energy              =   -1125.91898418 Ry
     Harris-Foulkes estimate   =   -1125.91898421 Ry
     estimated scf accuracy    <       0.00000012 Ry

     iteration # 31     ecut=    80.00 Ry     beta= 0.40
     Davidson diagonalization with overlap
     ethr =  1.30E-09,  avg # of iterations =  1.0

     negative rho (up, down):  6.560E-04 0.000E+00

     total cpu time spent up to now is      124.9 secs

     total energy              =   -1125.91898418 Ry
     Harris-Foulkes estimate   =   -1125.91898418 Ry
     estimated scf accuracy    <          2.1E-09 Ry

     iteration # 32     ecut=    80.00 Ry     beta= 0.40
     Davidson diagonalization with overlap
     ethr =  2.31E-11,  avg # of iterations =  4.0

     negative rho (up, down):  6.567E-04 0.000E+00

     total cpu time spent up to now is      129.8 secs

     total energy              =   -1125.91898418 Ry
     Harris-Foulkes estimate   =   -1125.91898419 Ry
     estimated scf accuracy    <       0.00000001 Ry

     iteration # 33     ecut=    80.00 Ry     beta= 0.40
     Davidson diagonalization with overlap
     ethr =  2.31E-11,  avg # of iterations =  3.0

     negative rho (up, down):  6.568E-04 0.000E+00

     total cpu time spent up to now is      134.0 secs

     End of self-consistent calculation

     Number of k-points >= 100: set verbosity='high' to print the bands.

     the Fermi energy is  -974.7714 ev

!    total energy              =   -1125.91898418 Ry
     Harris-Foulkes estimate   =   -1125.91898418 Ry
     estimated scf accuracy    <          7.6E-10 Ry

     total all-electron energy =    -16581.004760 Ry

     The total energy is the sum of the following terms:

     one-electron contribution =    -683.73961587 Ry
     hartree contribution      =      26.22799546 Ry
     xc contribution           =     -25.80912914 Ry
     ewald contribution        =     -58.64218555 Ry
     one-center paw contrib.   =    -383.94818005 Ry
     smearing contrib. (-TS)   =      -0.00786902 Ry

     convergence has been achieved in  33 iterations

     negative rho (up, down):  6.568E-04 0.000E+00

     Forces acting on atoms (cartesian axes, Ry/au):

     atom    1 type  1   force =     0.00000000   -0.00000000    0.00000000
     atom    2 type  2   force =     0.00000000    0.00000000    0.00000000
     atom    3 type  3   force =    -0.00000000   -0.00000000    0.00000000

     Total force =     0.000000     Total SCF correction =     0.000000


     Computing stress (Cartesian axis) and pressure


     negative rho (up, down):  6.568E-04 0.000E+00
          total   stress  (Ry/bohr**3)                   (kbar)     P=********
  -1.70362634   0.00000000   0.00000000    -250612.04      0.00      0.00
   0.00000000  -1.70362634   0.00000000          0.00-250612.04      0.00
   0.00000000   0.00000000  -1.70362634          0.00      0.00-250612.04


     init_run     :      1.37s CPU      2.22s WALL (       1 calls)
     electrons    :     77.94s CPU    129.60s WALL (       1 calls)
     forces       :      0.32s CPU      0.54s WALL (       1 calls)
     stress       :      0.85s CPU      1.41s WALL (       1 calls)

     Called by init_run:
     wfcinit      :      0.97s CPU      1.53s WALL (       1 calls)
     potinit      :      0.08s CPU      0.16s WALL (       1 calls)
     hinit0       :      0.27s CPU      0.46s WALL (       1 calls)

     Called by electrons:
     c_bands      :     64.73s CPU    105.40s WALL (      33 calls)
     sum_band     :     10.17s CPU     17.65s WALL (      33 calls)
     v_of_rho     :      0.36s CPU      0.62s WALL (      34 calls)
     newd         :      0.85s CPU      1.14s WALL (      34 calls)
     PAW_pot      :      1.79s CPU      4.71s WALL (      34 calls)
     mix_rho      :      0.09s CPU      0.14s WALL (      33 calls)

     Called by c_bands:
     init_us_2    :      1.50s CPU      2.01s WALL (    7590 calls)
     cegterg      :     61.38s CPU    100.03s WALL (    3630 calls)

     Called by sum_band:
     sum_band:bec :      0.05s CPU      0.07s WALL (    3630 calls)
     addusdens    :      0.61s CPU      0.70s WALL (      33 calls)

     Called by *egterg:
     h_psi        :     48.46s CPU     79.50s WALL (   13835 calls)
     s_psi        :      1.93s CPU      2.56s WALL (   13835 calls)
     g_psi        :      0.10s CPU      0.13s WALL (   10095 calls)
     cdiaghg      :      2.01s CPU      2.95s WALL (   13725 calls)

     Called by h_psi:
     h_psi:pot    :     48.23s CPU     79.18s WALL (   13835 calls)
     h_psi:calbec :      4.63s CPU      8.39s WALL (   13835 calls)
     vloc_psi     :     41.49s CPU     67.93s WALL (   13835 calls)
     add_vuspsi   :      2.08s CPU      2.81s WALL (   13835 calls)

     General routines
     calbec       :      6.42s CPU     11.90s WALL (   18015 calls)
     fft          :      0.25s CPU      0.60s WALL (     400 calls)
     ffts         :      0.01s CPU      0.02s WALL (      33 calls)
     fftw         :     45.23s CPU     76.04s WALL (  215370 calls)

     Parallel routines
     fft_scatt_xy :      3.22s CPU      4.37s WALL (  215803 calls)
     fft_scatt_yz :     25.07s CPU     49.17s WALL (  215803 calls)

     PWSCF        :  1m22.07s CPU     2m15.97s WALL


   This run was terminated on:   7:32:45  24Oct2018            

=------------------------------------------------------------------------------=
   JOB DONE.
=------------------------------------------------------------------------------=
