
     Program PWSCF v.6.3MaX starts on 24Oct2018 at 13:21:27 

     This program is part of the open-source Quantum ESPRESSO suite
     for quantum simulation of materials; please cite
         "P. Giannozzi et al., J. Phys.:Condens. Matter 21 395502 (2009);
         "P. Giannozzi et al., J. Phys.:Condens. Matter 29 465901 (2017);
          URL http://www.quantum-espresso.org", 
     in publications or presentations arising from this work. More details at
     http://www.quantum-espresso.org/quote

     Parallel version (MPI), running on     8 processors

     MPI processes distributed on     1 nodes
     R & G space division:  proc/nbgrp/npool/nimage =       8
     Waiting for input...
     Reading input from standard input
Warning: card &CELL ignored
Warning: card                CELL_DYNAMICS = 'BFGS' , ignored
Warning: card / ignored

     Current dimensions of program PWSCF are:
     Max number of different atomic species (ntypx) = 10
     Max number of k-points (npk) =  40000
     Max angular momentum in pseudopotentials (lmaxx) =  3
     Message from routine iosys:
     minimal I/O required, wf_collect reset to FALSE
               file N.pbe-n-kjpaw_psl.1.0.0.UPF: wavefunction(s)  2S renormalized
               file Na.pbe-spnl-kjpaw_psl.1.0.0.UPF: wavefunction(s)  2P renormalized

     Subspace diagonalization in iterative solution of the eigenvalue problem:
     a serial algorithm will be used


     Parallelization info
     --------------------
     sticks:   dense  smooth     PW     G-vecs:    dense   smooth      PW
     Min          49      49     17                  645      645     132
     Max          50      50     18                  646      646     134
     Sum         397     397    139                 5161     5161    1067



     bravais-lattice index     =            2
     lattice parameter (alat)  =       6.0000  a.u.
     unit-cell volume          =      54.0000 (a.u.)^3
     number of atoms/cell      =            3
     number of atomic types    =            3
     number of electrons       =         9.00
     number of Kohn-Sham states=            9
     kinetic-energy cutoff     =      80.0000  Ry
     charge density cutoff     =     320.0000  Ry
     convergence threshold     =      1.0E-09
     mixing beta               =       0.4000
     number of iterations used =            8  plain     mixing
     Exchange-correlation      = SLA PW PBX PBC ( 1  4  3  4 0 0)

     celldm(1)=   6.000000  celldm(2)=   0.000000  celldm(3)=   0.000000
     celldm(4)=   0.000000  celldm(5)=   0.000000  celldm(6)=   0.000000

     crystal axes: (cart. coord. in units of alat)
               a(1) = (  -0.500000   0.000000   0.500000 )  
               a(2) = (   0.000000   0.500000   0.500000 )  
               a(3) = (  -0.500000   0.500000   0.000000 )  

     reciprocal axes: (cart. coord. in units 2 pi/alat)
               b(1) = ( -1.000000 -1.000000  1.000000 )  
               b(2) = (  1.000000  1.000000  1.000000 )  
               b(3) = ( -1.000000  1.000000 -1.000000 )  


     PseudoPot. # 1 for N  read from file:
     ./ps/N.pbe-n-kjpaw_psl.1.0.0.UPF
     MD5 check sum: 200139db3989ad6e773ddd42f12fc3a8
     Pseudo is Projector augmented-wave + core cor, Zval =  5.0
     Generated using "atomic" code by A. Dal Corso v.6.3
     Shape of augmentation charge: PSQ
     Using radial grid of 1085 points,  4 beta functions with: 
                l(1) =   0
                l(2) =   0
                l(3) =   1
                l(4) =   1
     Q(r) pseudized with 0 coefficients 


     PseudoPot. # 2 for Na read from file:
     ./ps/Na.pbe-spnl-kjpaw_psl.1.0.0.UPF
     MD5 check sum: 09e782c158f17eb2240230c4112357ee
     Pseudo is Projector augmented-wave + core cor, Zval =  9.0
     Generated using "atomic" code by A. Dal Corso v.6.3
     Shape of augmentation charge: PSQ
     Using radial grid of 1121 points,  4 beta functions with: 
                l(1) =   0
                l(2) =   0
                l(3) =   1
                l(4) =   1
     Q(r) pseudized with 0 coefficients 


     PseudoPot. # 3 for Cs read from file:
     ./ps/Cs.pbe-spnl-kjpaw_psl.1.0.0.UPF
     MD5 check sum: f98336d4a4407e24c1ab1e3bc36275e8
     Pseudo is Projector augmented-wave + core cor, Zval = -5.0
     Generated using "atomic" code by A. Dal Corso v.6.2.2
     Shape of augmentation charge: PSQ
     Using radial grid of 1251 points,  6 beta functions with: 
                l(1) =   0
                l(2) =   0
                l(3) =   1
                l(4) =   1
                l(5) =   2
                l(6) =   2
     Q(r) pseudized with 0 coefficients 


     atomic species   valence    mass     pseudopotential
        N              5.00    14.00670     N ( 1.00)
        Na             9.00    22.98977     Na( 1.00)
        Cs            -5.00   132.90545     Cs( 1.00)

     24 Sym. Ops. (no inversion) found



   Cartesian axes

     site n.     atom                  positions (alat units)
         1           N   tau(   1) = (   0.0000000   0.0000000   0.0000000  )
         2           Na  tau(   2) = (  -0.2500000   0.2500000   0.2500000  )
         3           Cs  tau(   3) = (  -0.7500000   0.7500000   0.7500000  )

     number of k points=   110  Methfessel-Paxton smearing, width (Ry)=  0.0200

     Number of k-points >= 100: set verbosity='high' to print them.

     Dense  grid:     5161 G-vectors     FFT dimensions: (  25,  25,  25)

     Estimated max dynamical RAM per process >       7.85 MB

     Estimated total dynamical RAM >      62.79 MB

     Initial potential from superposition of free atoms

     starting charge   22.95298, renormalised to    9.00000
     Starting wfcs are   14 randomized atomic wfcs
     Checking if some PAW data can be deallocated... 

     total cpu time spent up to now is        3.9 secs

     Self-consistent Calculation

     iteration #  1     ecut=    80.00 Ry     beta= 0.40
     Davidson diagonalization with overlap
     ethr =  1.00E-02,  avg # of iterations = 10.3

     negative rho (up, down):  3.769E-03 0.000E+00

     total cpu time spent up to now is        6.4 secs

     total energy              =   -3430.67110264 Ry
     Harris-Foulkes estimate   =   -3444.51880345 Ry
     estimated scf accuracy    <      25.34041814 Ry

     iteration #  2     ecut=    80.00 Ry     beta= 0.40
     Davidson diagonalization with overlap
     ethr =  1.00E-02,  avg # of iterations =  2.8

     negative rho (up, down):  5.817E-01 0.000E+00

     total cpu time spent up to now is        7.7 secs

     total energy              =   -3427.20910372 Ry
     Harris-Foulkes estimate   =   -3431.73443529 Ry
     estimated scf accuracy    <       5.77236263 Ry

     iteration #  3     ecut=    80.00 Ry     beta= 0.40
     Davidson diagonalization with overlap
     ethr =  1.00E-02,  avg # of iterations =  2.2

     negative rho (up, down):  8.460E-01 0.000E+00

     total cpu time spent up to now is        8.7 secs

     total energy              =   -3428.19399721 Ry
     Harris-Foulkes estimate   =   -3428.47781148 Ry
     estimated scf accuracy    <       0.74508180 Ry

     iteration #  4     ecut=    80.00 Ry     beta= 0.40
     Davidson diagonalization with overlap
     ethr =  8.28E-03,  avg # of iterations =  1.6

     negative rho (up, down):  1.145E+00 0.000E+00

     total cpu time spent up to now is        9.6 secs

     total energy              =   -3428.27745419 Ry
     Harris-Foulkes estimate   =   -3428.36229130 Ry
     estimated scf accuracy    <       0.15123007 Ry

     iteration #  5     ecut=    80.00 Ry     beta= 0.40
     Davidson diagonalization with overlap
     ethr =  1.68E-03,  avg # of iterations =  2.6

     negative rho (up, down):  1.124E+00 0.000E+00

     total cpu time spent up to now is       10.5 secs

     total energy              =   -3428.26668169 Ry
     Harris-Foulkes estimate   =   -3428.28829261 Ry
     estimated scf accuracy    <       0.03424777 Ry

     iteration #  6     ecut=    80.00 Ry     beta= 0.40
     Davidson diagonalization with overlap
     ethr =  3.81E-04,  avg # of iterations =  4.0

     negative rho (up, down):  1.129E+00 0.000E+00

     total cpu time spent up to now is       11.6 secs

     total energy              =   -3428.27474749 Ry
     Harris-Foulkes estimate   =   -3428.27509762 Ry
     estimated scf accuracy    <       0.00078915 Ry

     iteration #  7     ecut=    80.00 Ry     beta= 0.40
     Davidson diagonalization with overlap
     ethr =  8.77E-06,  avg # of iterations =  5.2

     negative rho (up, down):  1.131E+00 0.000E+00

     total cpu time spent up to now is       13.1 secs

     total energy              =   -3428.27498235 Ry
     Harris-Foulkes estimate   =   -3428.27500011 Ry
     estimated scf accuracy    <       0.00006401 Ry

     iteration #  8     ecut=    80.00 Ry     beta= 0.40
     Davidson diagonalization with overlap
     ethr =  7.11E-07,  avg # of iterations =  1.8

     negative rho (up, down):  1.132E+00 0.000E+00

     total cpu time spent up to now is       14.0 secs

     total energy              =   -3428.27498157 Ry
     Harris-Foulkes estimate   =   -3428.27498618 Ry
     estimated scf accuracy    <       0.00001044 Ry

     iteration #  9     ecut=    80.00 Ry     beta= 0.40
     Davidson diagonalization with overlap
     ethr =  1.16E-07,  avg # of iterations =  1.7

     negative rho (up, down):  1.132E+00 0.000E+00

     total cpu time spent up to now is       14.8 secs

     total energy              =   -3428.27498348 Ry
     Harris-Foulkes estimate   =   -3428.27498358 Ry
     estimated scf accuracy    <       0.00000029 Ry

     iteration # 10     ecut=    80.00 Ry     beta= 0.40
     Davidson diagonalization with overlap
     ethr =  3.18E-09,  avg # of iterations =  2.2

     negative rho (up, down):  1.132E+00 0.000E+00

     total cpu time spent up to now is       15.8 secs

     total energy              =   -3428.27498355 Ry
     Harris-Foulkes estimate   =   -3428.27498356 Ry
     estimated scf accuracy    <       0.00000004 Ry

     iteration # 11     ecut=    80.00 Ry     beta= 0.40
     Davidson diagonalization with overlap
     ethr =  4.89E-10,  avg # of iterations =  1.7

     negative rho (up, down):  1.132E+00 0.000E+00

     total cpu time spent up to now is       16.7 secs

     total energy              =   -3428.27498356 Ry
     Harris-Foulkes estimate   =   -3428.27498357 Ry
     estimated scf accuracy    <          9.0E-09 Ry

     iteration # 12     ecut=    80.00 Ry     beta= 0.40
     Davidson diagonalization with overlap
     ethr =  1.00E-10,  avg # of iterations =  1.6

     negative rho (up, down):  1.132E+00 0.000E+00

     total cpu time spent up to now is       17.6 secs

     End of self-consistent calculation

     Number of k-points >= 100: set verbosity='high' to print the bands.

     the Fermi energy is -4375.9481 ev

!    total energy              =   -3428.27498351 Ry
     Harris-Foulkes estimate   =   -3428.27498351 Ry
     estimated scf accuracy    <          5.4E-12 Ry

     total all-electron energy =    -18883.360759 Ry

     The total energy is the sum of the following terms:

     one-electron contribution =   -2954.23680133 Ry
     hartree contribution      =      30.98296048 Ry
     xc contribution           =     -31.54554333 Ry
     ewald contribution        =     -89.10306853 Ry
     one-center paw contrib.   =    -384.37231514 Ry
     smearing contrib. (-TS)   =      -0.00021567 Ry

     convergence has been achieved in  12 iterations

     negative rho (up, down):  1.132E+00 0.000E+00

     Forces acting on atoms (cartesian axes, Ry/au):

     atom    1 type  1   force =     0.00000000    0.00000000    0.00000000
     atom    2 type  2   force =     0.00000000    0.00000000    0.00000000
     atom    3 type  3   force =    -0.00000000   -0.00000000    0.00000000

     Total force =     0.000000     Total SCF correction =     0.000000


     Computing stress (Cartesian axis) and pressure


     negative rho (up, down):  1.132E+00 0.000E+00
          total   stress  (Ry/bohr**3)                   (kbar)     P=********
 -60.61258321   0.00000000  -0.00000000    **********      0.00     -0.00
   0.00000000 -60.61258321  -0.00000000          0.00**********     -0.00
  -0.00000000   0.00000000 -60.61258321         -0.00      0.00**********


     init_run     :      0.38s CPU      0.91s WALL (       1 calls)
     electrons    :      6.59s CPU     13.64s WALL (       1 calls)
     forces       :      0.08s CPU      0.20s WALL (       1 calls)
     stress       :      0.20s CPU      0.36s WALL (       1 calls)

     Called by init_run:
     wfcinit      :      0.19s CPU      0.38s WALL (       1 calls)
     potinit      :      0.05s CPU      0.17s WALL (       1 calls)
     hinit0       :      0.14s CPU      0.34s WALL (       1 calls)

     Called by electrons:
     c_bands      :      5.27s CPU     10.02s WALL (      12 calls)
     sum_band     :      0.69s CPU      1.39s WALL (      12 calls)
     v_of_rho     :      0.02s CPU      0.04s WALL (      13 calls)
     newd         :      0.05s CPU      0.10s WALL (      13 calls)
     PAW_pot      :      0.59s CPU      2.23s WALL (      13 calls)
     mix_rho      :      0.00s CPU      0.01s WALL (      12 calls)

     Called by c_bands:
     init_us_2    :      0.15s CPU      0.19s WALL (    2970 calls)
     cegterg      :      4.99s CPU      9.49s WALL (    1320 calls)

     Called by sum_band:
     sum_band:bec :      0.01s CPU      0.02s WALL (    1320 calls)
     addusdens    :      0.04s CPU      0.04s WALL (      12 calls)

     Called by *egterg:
     h_psi        :      3.16s CPU      6.09s WALL (    5571 calls)
     s_psi        :      0.22s CPU      0.28s WALL (    5571 calls)
     g_psi        :      0.01s CPU      0.01s WALL (    4141 calls)
     cdiaghg      :      0.83s CPU      1.51s WALL (    5461 calls)

     Called by h_psi:
     h_psi:pot    :      3.14s CPU      6.08s WALL (    5571 calls)
     h_psi:calbec :      0.40s CPU      0.93s WALL (    5571 calls)
     vloc_psi     :      2.49s CPU      4.84s WALL (    5571 calls)
     add_vuspsi   :      0.23s CPU      0.29s WALL (    5571 calls)

     General routines
     calbec       :      0.60s CPU      1.45s WALL (    7441 calls)
     fft          :      0.02s CPU      0.12s WALL (     169 calls)
     ffts         :      0.00s CPU      0.00s WALL (      12 calls)
     fftw         :      2.67s CPU      5.44s WALL (   81544 calls)

     Parallel routines
     fft_scatt_xy :      0.30s CPU      0.37s WALL (   81725 calls)
     fft_scatt_yz :      1.31s CPU      3.85s WALL (   81725 calls)

     PWSCF        :     9.07s CPU        18.16s WALL


   This run was terminated on:  13:21:46  24Oct2018            

=------------------------------------------------------------------------------=
   JOB DONE.
=------------------------------------------------------------------------------=
