
     Program PWSCF v.6.3MaX starts on 23Oct2018 at 13:23:51 

     This program is part of the open-source Quantum ESPRESSO suite
     for quantum simulation of materials; please cite
         "P. Giannozzi et al., J. Phys.:Condens. Matter 21 395502 (2009);
         "P. Giannozzi et al., J. Phys.:Condens. Matter 29 465901 (2017);
          URL http://www.quantum-espresso.org", 
     in publications or presentations arising from this work. More details at
     http://www.quantum-espresso.org/quote

     Parallel version (MPI), running on     8 processors

     MPI processes distributed on     1 nodes
     R & G space division:  proc/nbgrp/npool/nimage =       8
     Waiting for input...
     Reading input from standard input
Warning: card &CELL ignored
Warning: card                CELL_DYNAMICS = 'BFGS' , ignored
Warning: card / ignored

     Current dimensions of program PWSCF are:
     Max number of different atomic species (ntypx) = 10
     Max number of k-points (npk) =  40000
     Max angular momentum in pseudopotentials (lmaxx) =  3
               file N.pbe-n-kjpaw_psl.1.0.0.UPF: wavefunction(s)  2S renormalized
               file Na.pbe-spnl-kjpaw_psl.1.0.0.UPF: wavefunction(s)  2P renormalized

     Subspace diagonalization in iterative solution of the eigenvalue problem:
     a serial algorithm will be used


     Parallelization info
     --------------------
     sticks:   dense  smooth     PW     G-vecs:    dense   smooth      PW
     Min         246     246     72                 7245     7245    1147
     Max         247     247     73                 7248     7248    1149
     Sum        1969    1969    583                57967    57967    9185



     bravais-lattice index     =            2
     lattice parameter (alat)  =      14.6200  a.u.
     unit-cell volume          =     781.2358 (a.u.)^3
     number of atoms/cell      =            3
     number of atomic types    =            3
     number of electrons       =         9.00
     number of Kohn-Sham states=            9
     kinetic-energy cutoff     =      67.0000  Ry
     charge density cutoff     =     268.0000  Ry
     convergence threshold     =      1.0E-09
     mixing beta               =       0.4000
     number of iterations used =            8  plain     mixing
     Exchange-correlation      = SLA PW PBX PBC ( 1  4  3  4 0 0)

     celldm(1)=  14.620000  celldm(2)=   0.000000  celldm(3)=   0.000000
     celldm(4)=   0.000000  celldm(5)=   0.000000  celldm(6)=   0.000000

     crystal axes: (cart. coord. in units of alat)
               a(1) = (  -0.500000   0.000000   0.500000 )  
               a(2) = (   0.000000   0.500000   0.500000 )  
               a(3) = (  -0.500000   0.500000   0.000000 )  

     reciprocal axes: (cart. coord. in units 2 pi/alat)
               b(1) = ( -1.000000 -1.000000  1.000000 )  
               b(2) = (  1.000000  1.000000  1.000000 )  
               b(3) = ( -1.000000  1.000000 -1.000000 )  


     PseudoPot. # 1 for N  read from file:
     ./../ps/N.pbe-n-kjpaw_psl.1.0.0.UPF
     MD5 check sum: 200139db3989ad6e773ddd42f12fc3a8
     Pseudo is Projector augmented-wave + core cor, Zval =  5.0
     Generated using "atomic" code by A. Dal Corso v.6.3
     Shape of augmentation charge: PSQ
     Using radial grid of 1085 points,  4 beta functions with: 
                l(1) =   0
                l(2) =   0
                l(3) =   1
                l(4) =   1
     Q(r) pseudized with 0 coefficients 


     PseudoPot. # 2 for Na read from file:
     ./../ps/Na.pbe-spnl-kjpaw_psl.1.0.0.UPF
     MD5 check sum: 09e782c158f17eb2240230c4112357ee
     Pseudo is Projector augmented-wave + core cor, Zval =  9.0
     Generated using "atomic" code by A. Dal Corso v.6.3
     Shape of augmentation charge: PSQ
     Using radial grid of 1121 points,  4 beta functions with: 
                l(1) =   0
                l(2) =   0
                l(3) =   1
                l(4) =   1
     Q(r) pseudized with 0 coefficients 


     PseudoPot. # 3 for Cs read from file:
     ./../ps/Cs.pbe-spnl-kjpaw_psl.1.0.0.UPF
     MD5 check sum: f98336d4a4407e24c1ab1e3bc36275e8
     Pseudo is Projector augmented-wave + core cor, Zval = -5.0
     Generated using "atomic" code by A. Dal Corso v.6.2.2
     Shape of augmentation charge: PSQ
     Using radial grid of 1251 points,  6 beta functions with: 
                l(1) =   0
                l(2) =   0
                l(3) =   1
                l(4) =   1
                l(5) =   2
                l(6) =   2
     Q(r) pseudized with 0 coefficients 


     atomic species   valence    mass     pseudopotential
        N              5.00    14.00670     N ( 1.00)
        Na             9.00    22.98977     Na( 1.00)
        Cs            -5.00   132.90545     Cs( 1.00)

     24 Sym. Ops. (no inversion) found



   Cartesian axes

     site n.     atom                  positions (alat units)
         1           N   tau(   1) = (   0.0000000   0.0000000   0.0000000  )
         2           Na  tau(   2) = (  -0.2500000   0.2500000   0.2500000  )
         3           Cs  tau(   3) = (  -0.7500000   0.7500000   0.7500000  )

     number of k points=   110  Methfessel-Paxton smearing, width (Ry)=  0.0200

     Number of k-points >= 100: set verbosity='high' to print them.

     Dense  grid:    57967 G-vectors     FFT dimensions: (  54,  54,  54)

     Estimated max dynamical RAM per process >      50.49 MB

     Estimated total dynamical RAM >     403.94 MB

     Check: negative/imaginary core charge=   -0.000002    0.000000

     Initial potential from superposition of free atoms

     starting charge   22.95298, renormalised to    9.00000
     Starting wfcs are   14 randomized atomic wfcs
     Checking if some PAW data can be deallocated... 

     total cpu time spent up to now is        5.0 secs

     Self-consistent Calculation

     iteration #  1     ecut=    67.00 Ry     beta= 0.40
     Davidson diagonalization with overlap
     ethr =  1.00E-02,  avg # of iterations = 12.3

     total cpu time spent up to now is       15.5 secs

     total energy              =    -717.45599510 Ry
     Harris-Foulkes estimate   =    -745.46142974 Ry
     estimated scf accuracy    <      48.64939190 Ry

     iteration #  2     ecut=    67.00 Ry     beta= 0.40
     Davidson diagonalization with overlap
     ethr =  1.00E-02,  avg # of iterations =  3.0

     total cpu time spent up to now is       21.1 secs

     total energy              =    -709.73706010 Ry
     Harris-Foulkes estimate   =    -719.39613517 Ry
     estimated scf accuracy    <      11.18810404 Ry

     iteration #  3     ecut=    67.00 Ry     beta= 0.40
     Davidson diagonalization with overlap
     ethr =  1.00E-02,  avg # of iterations =  9.7

     negative rho (up, down):  9.331E-02 0.000E+00

     total cpu time spent up to now is       31.2 secs

     total energy              =    -712.58344719 Ry
     Harris-Foulkes estimate   =    -713.18239417 Ry
     estimated scf accuracy    <       1.09653659 Ry

     iteration #  4     ecut=    67.00 Ry     beta= 0.40
     Davidson diagonalization with overlap
     ethr =  1.00E-02,  avg # of iterations =  3.0

     negative rho (up, down):  1.838E-01 0.000E+00

     total cpu time spent up to now is       36.0 secs

     total energy              =    -712.72434502 Ry
     Harris-Foulkes estimate   =    -712.91695388 Ry
     estimated scf accuracy    <       0.28250744 Ry

     iteration #  5     ecut=    67.00 Ry     beta= 0.40
     Davidson diagonalization with overlap
     ethr =  3.14E-03,  avg # of iterations =  6.2

     negative rho (up, down):  2.248E-01 0.000E+00

     total cpu time spent up to now is       42.6 secs

     total energy              =    -712.76920363 Ry
     Harris-Foulkes estimate   =    -712.81732144 Ry
     estimated scf accuracy    <       0.08571458 Ry

     iteration #  6     ecut=    67.00 Ry     beta= 0.40
     Davidson diagonalization with overlap
     ethr =  9.52E-04,  avg # of iterations =  2.6

     negative rho (up, down):  2.234E-01 0.000E+00

     total cpu time spent up to now is       47.3 secs

     total energy              =    -712.78581303 Ry
     Harris-Foulkes estimate   =    -712.78582270 Ry
     estimated scf accuracy    <       0.00004302 Ry

     iteration #  7     ecut=    67.00 Ry     beta= 0.40
     Davidson diagonalization with overlap
     ethr =  4.78E-07,  avg # of iterations = 12.8

     negative rho (up, down):  2.231E-01 0.000E+00

     total cpu time spent up to now is       59.1 secs

     total energy              =    -712.78697143 Ry
     Harris-Foulkes estimate   =    -712.78699163 Ry
     estimated scf accuracy    <       0.00002007 Ry

     iteration #  8     ecut=    67.00 Ry     beta= 0.40
     Davidson diagonalization with overlap
     ethr =  2.23E-07,  avg # of iterations =  3.3

     negative rho (up, down):  2.239E-01 0.000E+00

     total cpu time spent up to now is       64.1 secs

     total energy              =    -712.78698319 Ry
     Harris-Foulkes estimate   =    -712.78698630 Ry
     estimated scf accuracy    <       0.00000699 Ry

     iteration #  9     ecut=    67.00 Ry     beta= 0.40
     Davidson diagonalization with overlap
     ethr =  7.76E-08,  avg # of iterations =  2.0

     negative rho (up, down):  2.238E-01 0.000E+00

     total cpu time spent up to now is       68.6 secs

     total energy              =    -712.78698281 Ry
     Harris-Foulkes estimate   =    -712.78698506 Ry
     estimated scf accuracy    <       0.00000141 Ry

     iteration # 10     ecut=    67.00 Ry     beta= 0.40
     Davidson diagonalization with overlap
     ethr =  1.56E-08,  avg # of iterations =  2.1

     negative rho (up, down):  2.238E-01 0.000E+00

     total cpu time spent up to now is       73.0 secs

     total energy              =    -712.78698240 Ry
     Harris-Foulkes estimate   =    -712.78698299 Ry
     estimated scf accuracy    <       0.00000031 Ry

     iteration # 11     ecut=    67.00 Ry     beta= 0.40
     Davidson diagonalization with overlap
     ethr =  3.46E-09,  avg # of iterations =  2.5

     negative rho (up, down):  2.237E-01 0.000E+00

     total cpu time spent up to now is       77.7 secs

     total energy              =    -712.78698247 Ry
     Harris-Foulkes estimate   =    -712.78698251 Ry
     estimated scf accuracy    <       0.00000002 Ry

     iteration # 12     ecut=    67.00 Ry     beta= 0.40
     Davidson diagonalization with overlap
     ethr =  2.30E-10,  avg # of iterations =  3.1

     negative rho (up, down):  2.237E-01 0.000E+00

     total cpu time spent up to now is       83.1 secs

     End of self-consistent calculation

     Number of k-points >= 100: set verbosity='high' to print the bands.

     the Fermi energy is  -323.9342 ev

!    total energy              =    -712.78698248 Ry
     Harris-Foulkes estimate   =    -712.78698248 Ry
     estimated scf accuracy    <          6.3E-10 Ry

     total all-electron energy =    -16167.872758 Ry

     The total energy is the sum of the following terms:

     one-electron contribution =    -316.86876178 Ry
     hartree contribution      =      54.82708393 Ry
     xc contribution           =     -28.95957348 Ry
     ewald contribution        =     -36.56760676 Ry
     one-center paw contrib.   =    -385.20947483 Ry
     smearing contrib. (-TS)   =      -0.00864957 Ry

     convergence has been achieved in  12 iterations

     negative rho (up, down):  2.237E-01 0.000E+00

     Forces acting on atoms (cartesian axes, Ry/au):

     atom    1 type  1   force =    -0.00000000    0.00000000   -0.00000000
     atom    2 type  2   force =     0.00000000    0.00000000   -0.00000000
     atom    3 type  3   force =     0.00000000    0.00000000    0.00000000

     Total force =     0.000000     Total SCF correction =     0.000000


     Computing stress (Cartesian axis) and pressure


     negative rho (up, down):  2.237E-01 0.000E+00
          total   stress  (Ry/bohr**3)                   (kbar)     P=********
  -0.14347606  -0.00000000  -0.00000000     -21106.05     -0.00     -0.00
  -0.00000000  -0.14347606   0.00000000         -0.00 -21106.05      0.00
  -0.00000000   0.00000000  -0.14347606         -0.00      0.00 -21106.05


     Writing output data file NNaCs.save/

     init_run     :      2.57s CPU      3.07s WALL (       1 calls)
     electrons    :     75.42s CPU     78.10s WALL (       1 calls)
     forces       :      0.76s CPU      0.78s WALL (       1 calls)
     stress       :      1.73s CPU      1.75s WALL (       1 calls)

     Called by init_run:
     wfcinit      :      1.96s CPU      2.28s WALL (       1 calls)
     potinit      :      0.12s CPU      0.18s WALL (       1 calls)
     hinit0       :      0.37s CPU      0.46s WALL (       1 calls)

     Called by electrons:
     c_bands      :     65.00s CPU     66.61s WALL (      12 calls)
     sum_band     :      8.52s CPU      8.82s WALL (      12 calls)
     v_of_rho     :      0.24s CPU      0.31s WALL (      13 calls)
     newd         :      0.98s CPU      0.99s WALL (      13 calls)
     PAW_pot      :      0.72s CPU      1.47s WALL (      13 calls)
     mix_rho      :      0.08s CPU      0.08s WALL (      12 calls)

     Called by c_bands:
     init_us_2    :      2.12s CPU      2.17s WALL (    2970 calls)
     cegterg      :     62.13s CPU     63.66s WALL (    1320 calls)

     Called by sum_band:
     sum_band:bec :      0.04s CPU      0.04s WALL (    1320 calls)
     addusdens    :      0.81s CPU      0.82s WALL (      12 calls)

     Called by *egterg:
     h_psi        :     47.55s CPU     49.00s WALL (    8294 calls)
     s_psi        :      3.34s CPU      3.42s WALL (    8294 calls)
     g_psi        :      0.17s CPU      0.18s WALL (    6864 calls)
     cdiaghg      :      1.77s CPU      1.80s WALL (    8184 calls)

     Called by h_psi:
     h_psi:pot    :     47.05s CPU     48.48s WALL (    8294 calls)
     h_psi:calbec :      5.30s CPU      5.48s WALL (    8294 calls)
     vloc_psi     :     37.58s CPU     38.73s WALL (    8294 calls)
     add_vuspsi   :      4.12s CPU      4.23s WALL (    8294 calls)

     General routines
     calbec       :      6.87s CPU      7.10s WALL (   10164 calls)
     fft          :      0.11s CPU      0.14s WALL (     169 calls)
     ffts         :      0.01s CPU      0.01s WALL (      12 calls)
     fftw         :     35.65s CPU     36.80s WALL (   99552 calls)

     Parallel routines
     fft_scatt_xy :      4.32s CPU      4.45s WALL (   99733 calls)
     fft_scatt_yz :      5.96s CPU      6.31s WALL (   99733 calls)

     PWSCF        :  1m22.41s CPU     1m25.80s WALL


   This run was terminated on:  13:25:17  23Oct2018            

=------------------------------------------------------------------------------=
   JOB DONE.
=------------------------------------------------------------------------------=
