
     Program PWSCF v.6.3MaX starts on 23Oct2018 at 12:33:56 

     This program is part of the open-source Quantum ESPRESSO suite
     for quantum simulation of materials; please cite
         "P. Giannozzi et al., J. Phys.:Condens. Matter 21 395502 (2009);
         "P. Giannozzi et al., J. Phys.:Condens. Matter 29 465901 (2017);
          URL http://www.quantum-espresso.org", 
     in publications or presentations arising from this work. More details at
     http://www.quantum-espresso.org/quote

     Parallel version (MPI), running on     8 processors

     MPI processes distributed on     1 nodes
     R & G space division:  proc/nbgrp/npool/nimage =       8
     Waiting for input...
     Reading input from standard input
Warning: card &CELL ignored
Warning: card                CELL_DYNAMICS = 'BFGS' , ignored
Warning: card / ignored

     Current dimensions of program PWSCF are:
     Max number of different atomic species (ntypx) = 10
     Max number of k-points (npk) =  40000
     Max angular momentum in pseudopotentials (lmaxx) =  3
               file N.pbe-n-kjpaw_psl.1.0.0.UPF: wavefunction(s)  2S renormalized
               file Na.pbe-spnl-kjpaw_psl.1.0.0.UPF: wavefunction(s)  2P renormalized

     Subspace diagonalization in iterative solution of the eigenvalue problem:
     a serial algorithm will be used


     Parallelization info
     --------------------
     sticks:   dense  smooth     PW     G-vecs:    dense   smooth      PW
     Min         129     129     39                 2759     2759     464
     Max         130     130     40                 2761     2761     466
     Sum        1039    1039    313                22075    22075    3719



     bravais-lattice index     =            2
     lattice parameter (alat)  =      14.6200  a.u.
     unit-cell volume          =     781.2358 (a.u.)^3
     number of atoms/cell      =            3
     number of atomic types    =            3
     number of electrons       =         9.00
     number of Kohn-Sham states=            9
     kinetic-energy cutoff     =      35.0000  Ry
     charge density cutoff     =     140.0000  Ry
     convergence threshold     =      1.0E-09
     mixing beta               =       0.4000
     number of iterations used =            8  plain     mixing
     Exchange-correlation      = SLA PW PBX PBC ( 1  4  3  4 0 0)

     celldm(1)=  14.620000  celldm(2)=   0.000000  celldm(3)=   0.000000
     celldm(4)=   0.000000  celldm(5)=   0.000000  celldm(6)=   0.000000

     crystal axes: (cart. coord. in units of alat)
               a(1) = (  -0.500000   0.000000   0.500000 )  
               a(2) = (   0.000000   0.500000   0.500000 )  
               a(3) = (  -0.500000   0.500000   0.000000 )  

     reciprocal axes: (cart. coord. in units 2 pi/alat)
               b(1) = ( -1.000000 -1.000000  1.000000 )  
               b(2) = (  1.000000  1.000000  1.000000 )  
               b(3) = ( -1.000000  1.000000 -1.000000 )  


     PseudoPot. # 1 for N  read from file:
     ./../ps/N.pbe-n-kjpaw_psl.1.0.0.UPF
     MD5 check sum: 200139db3989ad6e773ddd42f12fc3a8
     Pseudo is Projector augmented-wave + core cor, Zval =  5.0
     Generated using "atomic" code by A. Dal Corso v.6.3
     Shape of augmentation charge: PSQ
     Using radial grid of 1085 points,  4 beta functions with: 
                l(1) =   0
                l(2) =   0
                l(3) =   1
                l(4) =   1
     Q(r) pseudized with 0 coefficients 


     PseudoPot. # 2 for Na read from file:
     ./../ps/Na.pbe-spnl-kjpaw_psl.1.0.0.UPF
     MD5 check sum: 09e782c158f17eb2240230c4112357ee
     Pseudo is Projector augmented-wave + core cor, Zval =  9.0
     Generated using "atomic" code by A. Dal Corso v.6.3
     Shape of augmentation charge: PSQ
     Using radial grid of 1121 points,  4 beta functions with: 
                l(1) =   0
                l(2) =   0
                l(3) =   1
                l(4) =   1
     Q(r) pseudized with 0 coefficients 


     PseudoPot. # 3 for Cs read from file:
     ./../ps/Cs.pbe-spnl-kjpaw_psl.1.0.0.UPF
     MD5 check sum: f98336d4a4407e24c1ab1e3bc36275e8
     Pseudo is Projector augmented-wave + core cor, Zval = -5.0
     Generated using "atomic" code by A. Dal Corso v.6.2.2
     Shape of augmentation charge: PSQ
     Using radial grid of 1251 points,  6 beta functions with: 
                l(1) =   0
                l(2) =   0
                l(3) =   1
                l(4) =   1
                l(5) =   2
                l(6) =   2
     Q(r) pseudized with 0 coefficients 


     atomic species   valence    mass     pseudopotential
        N              5.00    14.00670     N ( 1.00)
        Na             9.00    22.98977     Na( 1.00)
        Cs            -5.00   132.90545     Cs( 1.00)

     24 Sym. Ops. (no inversion) found



   Cartesian axes

     site n.     atom                  positions (alat units)
         1           N   tau(   1) = (   0.0000000   0.0000000   0.0000000  )
         2           Na  tau(   2) = (  -0.2500000   0.2500000   0.2500000  )
         3           Cs  tau(   3) = (  -0.7500000   0.7500000   0.7500000  )

     number of k points=   110  Methfessel-Paxton smearing, width (Ry)=  0.0200

     Number of k-points >= 100: set verbosity='high' to print them.

     Dense  grid:    22075 G-vectors     FFT dimensions: (  40,  40,  40)

     Estimated max dynamical RAM per process >      22.33 MB

     Estimated total dynamical RAM >     178.68 MB

     Check: negative/imaginary core charge=   -0.000029    0.000000

     Initial potential from superposition of free atoms

     starting charge   22.95298, renormalised to    9.00000
     Starting wfcs are   14 randomized atomic wfcs
     Checking if some PAW data can be deallocated... 

     total cpu time spent up to now is        2.7 secs

     Self-consistent Calculation

     iteration #  1     ecut=    35.00 Ry     beta= 0.40
     Davidson diagonalization with overlap
     ethr =  1.00E-02,  avg # of iterations = 11.3

     total cpu time spent up to now is        5.7 secs

     total energy              =    -718.49568274 Ry
     Harris-Foulkes estimate   =    -743.85241378 Ry
     estimated scf accuracy    <      43.38430894 Ry

     iteration #  2     ecut=    35.00 Ry     beta= 0.40
     Davidson diagonalization with overlap
     ethr =  1.00E-02,  avg # of iterations =  3.0

     total cpu time spent up to now is        7.5 secs

     total energy              =    -709.37788724 Ry
     Harris-Foulkes estimate   =    -719.72101382 Ry
     estimated scf accuracy    <      11.49955836 Ry

     iteration #  3     ecut=    35.00 Ry     beta= 0.40
     Davidson diagonalization with overlap
     ethr =  1.00E-02,  avg # of iterations =  9.7

     negative rho (up, down):  6.871E-02 0.000E+00

     total cpu time spent up to now is       10.7 secs

     total energy              =    -712.35494507 Ry
     Harris-Foulkes estimate   =    -713.25996230 Ry
     estimated scf accuracy    <       1.44953749 Ry

     iteration #  4     ecut=    35.00 Ry     beta= 0.40
     Davidson diagonalization with overlap
     ethr =  1.00E-02,  avg # of iterations =  2.8

     negative rho (up, down):  1.418E-01 0.000E+00

     total cpu time spent up to now is       12.2 secs

     total energy              =    -712.76484911 Ry
     Harris-Foulkes estimate   =    -712.72556570 Ry
     estimated scf accuracy    <       0.18754454 Ry

     iteration #  5     ecut=    35.00 Ry     beta= 0.40
     Davidson diagonalization with overlap
     ethr =  2.08E-03,  avg # of iterations =  4.1

     negative rho (up, down):  2.288E-01 0.000E+00

     total cpu time spent up to now is       14.0 secs

     total energy              =    -712.50234296 Ry
     Harris-Foulkes estimate   =    -712.97087756 Ry
     estimated scf accuracy    <       0.69886051 Ry

     iteration #  6     ecut=    35.00 Ry     beta= 0.40
     Davidson diagonalization with overlap
     ethr =  2.08E-03,  avg # of iterations =  2.0

     negative rho (up, down):  2.270E-01 0.000E+00

     total cpu time spent up to now is       15.4 secs

     total energy              =    -712.64893694 Ry
     Harris-Foulkes estimate   =    -712.64893403 Ry
     estimated scf accuracy    <       0.00003399 Ry

     iteration #  7     ecut=    35.00 Ry     beta= 0.40
     Davidson diagonalization with overlap
     c_bands:  1 eigenvalues not converged
     c_bands:  1 eigenvalues not converged
     c_bands:  1 eigenvalues not converged
     c_bands:  1 eigenvalues not converged
     c_bands:  1 eigenvalues not converged
     c_bands:  1 eigenvalues not converged
     ethr =  3.78E-07,  avg # of iterations = 14.8

     negative rho (up, down):  2.245E-01 0.000E+00

     total cpu time spent up to now is       19.7 secs

     total energy              =    -712.65020856 Ry
     Harris-Foulkes estimate   =    -712.65021373 Ry
     estimated scf accuracy    <       0.00005397 Ry

     iteration #  8     ecut=    35.00 Ry     beta= 0.40
     Davidson diagonalization with overlap
     ethr =  3.78E-07,  avg # of iterations =  2.0

     negative rho (up, down):  2.261E-01 0.000E+00

     total cpu time spent up to now is       21.1 secs

     total energy              =    -712.65019888 Ry
     Harris-Foulkes estimate   =    -712.65021246 Ry
     estimated scf accuracy    <       0.00002173 Ry

     iteration #  9     ecut=    35.00 Ry     beta= 0.40
     Davidson diagonalization with overlap
     ethr =  2.41E-07,  avg # of iterations =  1.0

     negative rho (up, down):  2.260E-01 0.000E+00

     total cpu time spent up to now is       22.3 secs

     total energy              =    -712.65020028 Ry
     Harris-Foulkes estimate   =    -712.65020055 Ry
     estimated scf accuracy    <       0.00000090 Ry

     iteration # 10     ecut=    35.00 Ry     beta= 0.40
     Davidson diagonalization with overlap
     ethr =  1.00E-08,  avg # of iterations =  3.0

     negative rho (up, down):  2.258E-01 0.000E+00

     total cpu time spent up to now is       23.7 secs

     total energy              =    -712.65020029 Ry
     Harris-Foulkes estimate   =    -712.65020041 Ry
     estimated scf accuracy    <       0.00000028 Ry

     iteration # 11     ecut=    35.00 Ry     beta= 0.40
     Davidson diagonalization with overlap
     ethr =  3.15E-09,  avg # of iterations =  2.1

     negative rho (up, down):  2.259E-01 0.000E+00

     total cpu time spent up to now is       25.3 secs

     total energy              =    -712.65020036 Ry
     Harris-Foulkes estimate   =    -712.65020045 Ry
     estimated scf accuracy    <       0.00000007 Ry

     iteration # 12     ecut=    35.00 Ry     beta= 0.40
     Davidson diagonalization with overlap
     ethr =  7.45E-10,  avg # of iterations =  2.0

     negative rho (up, down):  2.259E-01 0.000E+00

     total cpu time spent up to now is       26.8 secs

     total energy              =    -712.65020039 Ry
     Harris-Foulkes estimate   =    -712.65020039 Ry
     estimated scf accuracy    <          4.2E-09 Ry

     iteration # 13     ecut=    35.00 Ry     beta= 0.40
     Davidson diagonalization with overlap
     ethr =  4.65E-11,  avg # of iterations =  2.4

     negative rho (up, down):  2.258E-01 0.000E+00

     total cpu time spent up to now is       28.2 secs

     total energy              =    -712.65020039 Ry
     Harris-Foulkes estimate   =    -712.65020039 Ry
     estimated scf accuracy    <          2.2E-09 Ry

     iteration # 14     ecut=    35.00 Ry     beta= 0.40
     Davidson diagonalization with overlap
     ethr =  2.45E-11,  avg # of iterations =  2.0

     negative rho (up, down):  2.258E-01 0.000E+00

     total cpu time spent up to now is       29.6 secs

     End of self-consistent calculation

     Number of k-points >= 100: set verbosity='high' to print the bands.

     the Fermi energy is  -323.7599 ev

!    total energy              =    -712.65020040 Ry
     Harris-Foulkes estimate   =    -712.65020040 Ry
     estimated scf accuracy    <          2.2E-10 Ry

     total all-electron energy =    -16167.735976 Ry

     The total energy is the sum of the following terms:

     one-electron contribution =    -316.47922472 Ry
     hartree contribution      =      54.46238149 Ry
     xc contribution           =     -28.89035655 Ry
     ewald contribution        =     -36.56760684 Ry
     one-center paw contrib.   =    -385.16675335 Ry
     smearing contrib. (-TS)   =      -0.00864043 Ry

     convergence has been achieved in  14 iterations

     negative rho (up, down):  2.258E-01 0.000E+00

     Forces acting on atoms (cartesian axes, Ry/au):

     atom    1 type  1   force =    -0.00000000   -0.00000000    0.00000000
     atom    2 type  2   force =     0.00000000   -0.00000000    0.00000000
     atom    3 type  3   force =    -0.00000000    0.00000000   -0.00000000

     Total force =     0.000000     Total SCF correction =     0.000000


     Computing stress (Cartesian axis) and pressure


     negative rho (up, down):  2.258E-01 0.000E+00
          total   stress  (Ry/bohr**3)                   (kbar)     P=********
  -0.14442772  -0.00000000  -0.00000000     -21246.05     -0.00     -0.00
  -0.00000000  -0.14442772   0.00000000         -0.00 -21246.05      0.00
  -0.00000000   0.00000000  -0.14442772         -0.00      0.00 -21246.05


     Writing output data file NNaCs.save/

     init_run     :      0.89s CPU      1.04s WALL (       1 calls)
     electrons    :     24.47s CPU     26.90s WALL (       1 calls)
     forces       :      0.24s CPU      0.27s WALL (       1 calls)
     stress       :      0.60s CPU      0.61s WALL (       1 calls)

     Called by init_run:
     wfcinit      :      0.57s CPU      0.60s WALL (       1 calls)
     potinit      :      0.07s CPU      0.14s WALL (       1 calls)
     hinit0       :      0.21s CPU      0.24s WALL (       1 calls)

     Called by electrons:
     c_bands      :     20.76s CPU     22.07s WALL (      14 calls)
     sum_band     :      2.50s CPU      2.74s WALL (      14 calls)
     v_of_rho     :      0.08s CPU      0.09s WALL (      15 calls)
     newd         :      0.36s CPU      0.37s WALL (      15 calls)
     PAW_pot      :      0.81s CPU      1.70s WALL (      15 calls)
     mix_rho      :      0.03s CPU      0.05s WALL (      14 calls)

     Called by c_bands:
     init_us_2    :      0.70s CPU      0.75s WALL (    3410 calls)
     cegterg      :     19.60s CPU     20.84s WALL (    1540 calls)

     Called by sum_band:
     sum_band:bec :      0.02s CPU      0.02s WALL (    1540 calls)
     addusdens    :      0.33s CPU      0.34s WALL (      14 calls)

     Called by *egterg:
     h_psi        :     13.41s CPU     14.27s WALL (    8501 calls)
     s_psi        :      1.21s CPU      1.28s WALL (    8501 calls)
     g_psi        :      0.07s CPU      0.07s WALL (    6851 calls)
     cdiaghg      :      1.51s CPU      1.60s WALL (    8391 calls)

     Called by h_psi:
     h_psi:pot    :     13.20s CPU     14.04s WALL (    8501 calls)
     h_psi:calbec :      1.61s CPU      1.72s WALL (    8501 calls)
     vloc_psi     :     10.25s CPU     10.90s WALL (    8501 calls)
     add_vuspsi   :      1.30s CPU      1.39s WALL (    8501 calls)

     General routines
     calbec       :      2.12s CPU      2.29s WALL (   10591 calls)
     fft          :      0.04s CPU      0.05s WALL (     191 calls)
     ffts         :      0.00s CPU      0.00s WALL (      14 calls)
     fftw         :     10.13s CPU     10.81s WALL (  109484 calls)

     Parallel routines
     fft_scatt_xy :      1.31s CPU      1.40s WALL (  109689 calls)
     fft_scatt_yz :      2.55s CPU      2.73s WALL (  109689 calls)

     PWSCF        :    27.83s CPU        30.59s WALL


   This run was terminated on:  12:34:27  23Oct2018            

=------------------------------------------------------------------------------=
   JOB DONE.
=------------------------------------------------------------------------------=
