
     Program PWSCF v.6.3MaX starts on 24Oct2018 at 10: 3:22 

     This program is part of the open-source Quantum ESPRESSO suite
     for quantum simulation of materials; please cite
         "P. Giannozzi et al., J. Phys.:Condens. Matter 21 395502 (2009);
         "P. Giannozzi et al., J. Phys.:Condens. Matter 29 465901 (2017);
          URL http://www.quantum-espresso.org", 
     in publications or presentations arising from this work. More details at
     http://www.quantum-espresso.org/quote

     Parallel version (MPI), running on     8 processors

     MPI processes distributed on     1 nodes
     R & G space division:  proc/nbgrp/npool/nimage =       8
     Waiting for input...
     Reading input from standard input
Warning: card &CELL ignored
Warning: card                CELL_DYNAMICS = 'BFGS' , ignored
Warning: card / ignored

     Current dimensions of program PWSCF are:
     Max number of different atomic species (ntypx) = 10
     Max number of k-points (npk) =  40000
     Max angular momentum in pseudopotentials (lmaxx) =  3
     Message from routine iosys:
     minimal I/O required, wf_collect reset to FALSE
               file N.pbe-n-kjpaw_psl.1.0.0.UPF: wavefunction(s)  2S renormalized
               file Na.pbe-spnl-kjpaw_psl.1.0.0.UPF: wavefunction(s)  2P renormalized

     Subspace diagonalization in iterative solution of the eigenvalue problem:
     a serial algorithm will be used


     Parallelization info
     --------------------
     sticks:   dense  smooth     PW     G-vecs:    dense   smooth      PW
     Min         194     194     57                 5101     5101     820
     Max         195     195     59                 5105     5105     822
     Sum        1555    1555    463                40821    40821    6567



     bravais-lattice index     =            2
     lattice parameter (alat)  =      11.9000  a.u.
     unit-cell volume          =     421.2898 (a.u.)^3
     number of atoms/cell      =            3
     number of atomic types    =            3
     number of electrons       =         9.00
     number of Kohn-Sham states=            9
     kinetic-energy cutoff     =      80.0000  Ry
     charge density cutoff     =     320.0000  Ry
     convergence threshold     =      1.0E-09
     mixing beta               =       0.4000
     number of iterations used =            8  plain     mixing
     Exchange-correlation      = SLA PW PBX PBC ( 1  4  3  4 0 0)

     celldm(1)=  11.900000  celldm(2)=   0.000000  celldm(3)=   0.000000
     celldm(4)=   0.000000  celldm(5)=   0.000000  celldm(6)=   0.000000

     crystal axes: (cart. coord. in units of alat)
               a(1) = (  -0.500000   0.000000   0.500000 )  
               a(2) = (   0.000000   0.500000   0.500000 )  
               a(3) = (  -0.500000   0.500000   0.000000 )  

     reciprocal axes: (cart. coord. in units 2 pi/alat)
               b(1) = ( -1.000000 -1.000000  1.000000 )  
               b(2) = (  1.000000  1.000000  1.000000 )  
               b(3) = ( -1.000000  1.000000 -1.000000 )  


     PseudoPot. # 1 for N  read from file:
     ./ps/N.pbe-n-kjpaw_psl.1.0.0.UPF
     MD5 check sum: 200139db3989ad6e773ddd42f12fc3a8
     Pseudo is Projector augmented-wave + core cor, Zval =  5.0
     Generated using "atomic" code by A. Dal Corso v.6.3
     Shape of augmentation charge: PSQ
     Using radial grid of 1085 points,  4 beta functions with: 
                l(1) =   0
                l(2) =   0
                l(3) =   1
                l(4) =   1
     Q(r) pseudized with 0 coefficients 


     PseudoPot. # 2 for Na read from file:
     ./ps/Na.pbe-spnl-kjpaw_psl.1.0.0.UPF
     MD5 check sum: 09e782c158f17eb2240230c4112357ee
     Pseudo is Projector augmented-wave + core cor, Zval =  9.0
     Generated using "atomic" code by A. Dal Corso v.6.3
     Shape of augmentation charge: PSQ
     Using radial grid of 1121 points,  4 beta functions with: 
                l(1) =   0
                l(2) =   0
                l(3) =   1
                l(4) =   1
     Q(r) pseudized with 0 coefficients 


     PseudoPot. # 3 for Cs read from file:
     ./ps/Cs.pbe-spnl-kjpaw_psl.1.0.0.UPF
     MD5 check sum: f98336d4a4407e24c1ab1e3bc36275e8
     Pseudo is Projector augmented-wave + core cor, Zval = -5.0
     Generated using "atomic" code by A. Dal Corso v.6.2.2
     Shape of augmentation charge: PSQ
     Using radial grid of 1251 points,  6 beta functions with: 
                l(1) =   0
                l(2) =   0
                l(3) =   1
                l(4) =   1
                l(5) =   2
                l(6) =   2
     Q(r) pseudized with 0 coefficients 


     atomic species   valence    mass     pseudopotential
        N              5.00    14.00670     N ( 1.00)
        Na             9.00    22.98977     Na( 1.00)
        Cs            -5.00   132.90545     Cs( 1.00)

     24 Sym. Ops. (no inversion) found



   Cartesian axes

     site n.     atom                  positions (alat units)
         1           N   tau(   1) = (   0.0000000   0.0000000   0.0000000  )
         2           Na  tau(   2) = (  -0.5000000   0.5000000   0.5000000  )
         3           Cs  tau(   3) = (  -0.7500000   0.7500000   0.7500000  )

     number of k points=   110  Methfessel-Paxton smearing, width (Ry)=  0.0200

     Number of k-points >= 100: set verbosity='high' to print them.

     Dense  grid:    40821 G-vectors     FFT dimensions: (  48,  48,  48)

     Estimated max dynamical RAM per process >      37.21 MB

     Estimated total dynamical RAM >     297.72 MB

     Check: negative/imaginary core charge=   -0.000003    0.000000

     Initial potential from superposition of free atoms

     starting charge   22.95298, renormalised to    9.00000
     Starting wfcs are   14 randomized atomic wfcs
     Checking if some PAW data can be deallocated... 

     total cpu time spent up to now is        6.8 secs

     Self-consistent Calculation

     iteration #  1     ecut=    80.00 Ry     beta= 0.40
     Davidson diagonalization with overlap
     ethr =  1.00E-02,  avg # of iterations = 14.0

     total cpu time spent up to now is       19.5 secs

     total energy              =    -893.02572945 Ry
     Harris-Foulkes estimate   =    -908.36828669 Ry
     estimated scf accuracy    <      27.04851599 Ry

     iteration #  2     ecut=    80.00 Ry     beta= 0.40
     Davidson diagonalization with overlap
     ethr =  1.00E-02,  avg # of iterations =  2.4

     negative rho (up, down):  1.459E-03 0.000E+00

     total cpu time spent up to now is       24.1 secs

     total energy              =    -895.41951712 Ry
     Harris-Foulkes estimate   =    -906.88935997 Ry
     estimated scf accuracy    <      41.39226325 Ry

     iteration #  3     ecut=    80.00 Ry     beta= 0.40
     Davidson diagonalization with overlap
     ethr =  1.00E-02,  avg # of iterations =  2.0

     total cpu time spent up to now is       28.0 secs

     total energy              =    -894.79280283 Ry
     Harris-Foulkes estimate   =    -899.55800291 Ry
     estimated scf accuracy    <       8.47864260 Ry

     iteration #  4     ecut=    80.00 Ry     beta= 0.40
     Davidson diagonalization with overlap
     ethr =  1.00E-02,  avg # of iterations =  2.0

     negative rho (up, down):  9.723E-03 0.000E+00

     total cpu time spent up to now is       32.6 secs

     total energy              =    -898.14178279 Ry
     Harris-Foulkes estimate   =    -904.80512965 Ry
     estimated scf accuracy    <      32.80922856 Ry

     iteration #  5     ecut=    80.00 Ry     beta= 0.40
     Davidson diagonalization with overlap
     ethr =  1.00E-02,  avg # of iterations =  2.0

     negative rho (up, down):  1.019E-02 0.000E+00

     total cpu time spent up to now is       37.3 secs

     total energy              =    -899.81718329 Ry
     Harris-Foulkes estimate   =    -899.22446747 Ry
     estimated scf accuracy    <      13.61133845 Ry

     iteration #  6     ecut=    80.00 Ry     beta= 0.40
     Davidson diagonalization with overlap
     ethr =  1.00E-02,  avg # of iterations =  1.0

     negative rho (up, down):  1.332E-01 0.000E+00

     total cpu time spent up to now is       41.0 secs

     total energy              =    -887.97358660 Ry
     Harris-Foulkes estimate   =    -899.82150703 Ry
     estimated scf accuracy    <      14.34426378 Ry

     iteration #  7     ecut=    80.00 Ry     beta= 0.40
     Davidson diagonalization with overlap
     ethr =  1.00E-02,  avg # of iterations =  3.6

     negative rho (up, down):  8.188E-03 0.000E+00

     total cpu time spent up to now is       46.9 secs

     total energy              =    -909.10032738 Ry
     Harris-Foulkes estimate   =    -921.09183614 Ry
     estimated scf accuracy    <      56.78646620 Ry

     iteration #  8     ecut=    80.00 Ry     beta= 0.40
     Davidson diagonalization with overlap
     ethr =  1.00E-02,  avg # of iterations =  1.0

     negative rho (up, down):  7.000E-03 0.000E+00

     total cpu time spent up to now is       50.6 secs

     total energy              =    -907.56340351 Ry
     Harris-Foulkes estimate   =    -909.13218376 Ry
     estimated scf accuracy    <      43.53310468 Ry

     iteration #  9     ecut=    80.00 Ry     beta= 0.40
     Davidson diagonalization with overlap
     ethr =  1.00E-02,  avg # of iterations =  1.0

     negative rho (up, down):  8.238E-03 0.000E+00

     total cpu time spent up to now is       54.4 secs

     total energy              =    -900.42358776 Ry
     Harris-Foulkes estimate   =    -907.57036632 Ry
     estimated scf accuracy    <      42.08316242 Ry

     iteration # 10     ecut=    80.00 Ry     beta= 0.40
     Davidson diagonalization with overlap
     ethr =  1.00E-02,  avg # of iterations =  2.2

     negative rho (up, down):  9.003E-03 0.000E+00

     total cpu time spent up to now is       58.4 secs

     total energy              =    -902.35956833 Ry
     Harris-Foulkes estimate   =    -902.20103048 Ry
     estimated scf accuracy    <      12.91586568 Ry

     iteration # 11     ecut=    80.00 Ry     beta= 0.40
     Davidson diagonalization with overlap
     ethr =  1.00E-02,  avg # of iterations =  1.0

     negative rho (up, down):  9.320E-03 0.000E+00

     total cpu time spent up to now is       62.2 secs

     total energy              =    -902.96761205 Ry
     Harris-Foulkes estimate   =    -902.36869702 Ry
     estimated scf accuracy    <      13.13493773 Ry

     iteration # 12     ecut=    80.00 Ry     beta= 0.40
     Davidson diagonalization with overlap
     ethr =  1.00E-02,  avg # of iterations =  1.0

     negative rho (up, down):  1.005E-02 0.000E+00

     total cpu time spent up to now is       65.8 secs

     total energy              =    -903.85201115 Ry
     Harris-Foulkes estimate   =    -902.97041920 Ry
     estimated scf accuracy    <      13.81790919 Ry

     iteration # 13     ecut=    80.00 Ry     beta= 0.40
     Davidson diagonalization with overlap
     ethr =  1.00E-02,  avg # of iterations =  1.0

     negative rho (up, down):  8.885E-03 0.000E+00

     total cpu time spent up to now is       69.5 secs

     total energy              =    -896.39712321 Ry
     Harris-Foulkes estimate   =    -903.97667722 Ry
     estimated scf accuracy    <      25.32919216 Ry

     iteration # 14     ecut=    80.00 Ry     beta= 0.40
     Davidson diagonalization with overlap
     ethr =  1.00E-02,  avg # of iterations =  2.7

     negative rho (up, down):  8.318E-03 0.000E+00

     total cpu time spent up to now is       74.1 secs

     total energy              =    -897.33860725 Ry
     Harris-Foulkes estimate   =    -899.38644432 Ry
     estimated scf accuracy    <      13.78935086 Ry

     iteration # 15     ecut=    80.00 Ry     beta= 0.40
     Davidson diagonalization with overlap
     ethr =  1.00E-02,  avg # of iterations =  1.1

     negative rho (up, down):  7.849E-03 0.000E+00

     total cpu time spent up to now is       77.9 secs

     total energy              =    -898.07403638 Ry
     Harris-Foulkes estimate   =    -899.65427400 Ry
     estimated scf accuracy    <      10.20760783 Ry

     iteration # 16     ecut=    80.00 Ry     beta= 0.40
     Davidson diagonalization with overlap
     ethr =  1.00E-02,  avg # of iterations =  1.7

     negative rho (up, down):  7.951E-03 0.000E+00

     total cpu time spent up to now is       81.9 secs

     total energy              =    -898.80876676 Ry
     Harris-Foulkes estimate   =    -900.37141968 Ry
     estimated scf accuracy    <      15.02006945 Ry

     iteration # 17     ecut=    80.00 Ry     beta= 0.40
     Davidson diagonalization with overlap
     ethr =  1.00E-02,  avg # of iterations =  1.0

     negative rho (up, down):  7.831E-03 0.000E+00

     total cpu time spent up to now is       85.6 secs

     total energy              =    -898.86137658 Ry
     Harris-Foulkes estimate   =    -898.85585296 Ry
     estimated scf accuracy    <       1.72399339 Ry

     iteration # 18     ecut=    80.00 Ry     beta= 0.40
     Davidson diagonalization with overlap
     ethr =  1.00E-02,  avg # of iterations =  1.1

     negative rho (up, down):  1.129E-01 0.000E+00

     total cpu time spent up to now is       89.3 secs

     total energy              =    -887.89230469 Ry
     Harris-Foulkes estimate   =    -899.01060007 Ry
     estimated scf accuracy    <      13.46529970 Ry

     iteration # 19     ecut=    80.00 Ry     beta= 0.40
     Davidson diagonalization with overlap
     ethr =  1.00E-02,  avg # of iterations =  2.1

     negative rho (up, down):  9.376E-03 0.000E+00

     total cpu time spent up to now is       94.2 secs

     total energy              =    -901.85152177 Ry
     Harris-Foulkes estimate   =    -921.74050780 Ry
     estimated scf accuracy    <      57.49155804 Ry

     iteration # 20     ecut=    80.00 Ry     beta= 0.40
     Davidson diagonalization with overlap
     ethr =  1.00E-02,  avg # of iterations =  2.0

     negative rho (up, down):  9.369E-03 0.000E+00

     total cpu time spent up to now is       98.7 secs

     total energy              =    -902.07681308 Ry
     Harris-Foulkes estimate   =    -902.95667227 Ry
     estimated scf accuracy    <      13.94009974 Ry

     iteration # 21     ecut=    80.00 Ry     beta= 0.40
     Davidson diagonalization with overlap
     ethr =  1.00E-02,  avg # of iterations =  1.0

     negative rho (up, down):  9.444E-03 0.000E+00

     total cpu time spent up to now is      102.4 secs

     total energy              =    -902.13193960 Ry
     Harris-Foulkes estimate   =    -902.09108975 Ry
     estimated scf accuracy    <      13.07542054 Ry

     iteration # 22     ecut=    80.00 Ry     beta= 0.40
     Davidson diagonalization with overlap
     ethr =  1.00E-02,  avg # of iterations =  1.0

     negative rho (up, down):  9.543E-03 0.000E+00

     total cpu time spent up to now is      106.1 secs

     total energy              =    -904.01542883 Ry
     Harris-Foulkes estimate   =    -902.14015594 Ry
     estimated scf accuracy    <      13.14338242 Ry

     iteration # 23     ecut=    80.00 Ry     beta= 0.40
     Davidson diagonalization with overlap
     ethr =  1.00E-02,  avg # of iterations =  1.0

     negative rho (up, down):  8.856E-03 0.000E+00

     total cpu time spent up to now is      109.9 secs

     total energy              =    -902.34350034 Ry
     Harris-Foulkes estimate   =    -904.18774739 Ry
     estimated scf accuracy    <      25.67918303 Ry

     iteration # 24     ecut=    80.00 Ry     beta= 0.40
     Davidson diagonalization with overlap
     ethr =  1.00E-02,  avg # of iterations =  1.0

     negative rho (up, down):  1.016E-02 0.000E+00

     total cpu time spent up to now is      113.7 secs

     total energy              =    -903.78605598 Ry
     Harris-Foulkes estimate   =    -902.65097199 Ry
     estimated scf accuracy    <      13.63243566 Ry

     iteration # 25     ecut=    80.00 Ry     beta= 0.40
     Davidson diagonalization with overlap
     ethr =  1.00E-02,  avg # of iterations =  1.0

     negative rho (up, down):  8.310E-03 0.000E+00

     total cpu time spent up to now is      117.4 secs

     total energy              =    -902.88926825 Ry
     Harris-Foulkes estimate   =    -903.88390139 Ry
     estimated scf accuracy    <      25.37773304 Ry

     iteration # 26     ecut=    80.00 Ry     beta= 0.40
     Davidson diagonalization with overlap
     ethr =  1.00E-02,  avg # of iterations =  1.0

     negative rho (up, down):  7.729E-03 0.000E+00

     total cpu time spent up to now is      121.2 secs

     total energy              =    -902.21045928 Ry
     Harris-Foulkes estimate   =    -903.05901950 Ry
     estimated scf accuracy    <      14.02744426 Ry

     iteration # 27     ecut=    80.00 Ry     beta= 0.40
     Davidson diagonalization with overlap
     ethr =  1.00E-02,  avg # of iterations =  1.0

     negative rho (up, down):  2.016E-02 0.000E+00

     total cpu time spent up to now is      124.9 secs

     total energy              =    -897.24105472 Ry
     Harris-Foulkes estimate   =    -902.21231374 Ry
     estimated scf accuracy    <      13.05609394 Ry

     iteration # 28     ecut=    80.00 Ry     beta= 0.40
     Davidson diagonalization with overlap
     ethr =  1.00E-02,  avg # of iterations =  3.0

     negative rho (up, down):  7.042E-02 0.000E+00

     total cpu time spent up to now is      129.7 secs

     total energy              =    -888.68698226 Ry
     Harris-Foulkes estimate   =    -901.05352969 Ry
     estimated scf accuracy    <      15.68407063 Ry

     iteration # 29     ecut=    80.00 Ry     beta= 0.40
     Davidson diagonalization with overlap
     ethr =  1.00E-02,  avg # of iterations =  2.0

     negative rho (up, down):  1.192E-02 0.000E+00

     total cpu time spent up to now is      134.9 secs

     total energy              =    -892.73808918 Ry
     Harris-Foulkes estimate   =    -915.68527423 Ry
     estimated scf accuracy    <      51.45564809 Ry

     iteration # 30     ecut=    80.00 Ry     beta= 0.40
     Davidson diagonalization with overlap
     ethr =  1.00E-02,  avg # of iterations =  4.0

     negative rho (up, down):  1.287E-02 0.000E+00

     total cpu time spent up to now is      140.5 secs

     total energy              =    -898.66232770 Ry
     Harris-Foulkes estimate   =    -898.76350196 Ry
     estimated scf accuracy    <       1.39016302 Ry

     iteration # 31     ecut=    80.00 Ry     beta= 0.40
     Davidson diagonalization with overlap
     ethr =  1.00E-02,  avg # of iterations =  1.0

     negative rho (up, down):  8.280E-03 0.000E+00

     total cpu time spent up to now is      144.3 secs

     total energy              =    -902.42005770 Ry
     Harris-Foulkes estimate   =    -899.07239292 Ry
     estimated scf accuracy    <       9.56162586 Ry

     iteration # 32     ecut=    80.00 Ry     beta= 0.40
     Davidson diagonalization with overlap
     ethr =  1.00E-02,  avg # of iterations =  1.0

     negative rho (up, down):  7.679E-03 0.000E+00

     total cpu time spent up to now is      148.0 secs

     total energy              =    -903.09989388 Ry
     Harris-Foulkes estimate   =    -902.44224321 Ry
     estimated scf accuracy    <      13.26928172 Ry

     iteration # 33     ecut=    80.00 Ry     beta= 0.40
     Davidson diagonalization with overlap
     ethr =  1.00E-02,  avg # of iterations =  1.0

     negative rho (up, down):  8.554E-03 0.000E+00

     total cpu time spent up to now is      151.8 secs

     total energy              =    -903.36830599 Ry
     Harris-Foulkes estimate   =    -903.10831448 Ry
     estimated scf accuracy    <      13.97081142 Ry

     iteration # 34     ecut=    80.00 Ry     beta= 0.40
     Davidson diagonalization with overlap
     ethr =  1.00E-02,  avg # of iterations =  1.0

     negative rho (up, down):  7.293E-03 0.000E+00

     total cpu time spent up to now is      155.6 secs

     total energy              =    -903.18749384 Ry
     Harris-Foulkes estimate   =    -903.37288290 Ry
     estimated scf accuracy    <      14.29823813 Ry

     iteration # 35     ecut=    80.00 Ry     beta= 0.40
     Davidson diagonalization with overlap
     ethr =  1.00E-02,  avg # of iterations =  1.0

     negative rho (up, down):  7.241E-03 0.000E+00

     total cpu time spent up to now is      159.4 secs

     total energy              =    -902.10534100 Ry
     Harris-Foulkes estimate   =    -903.18931182 Ry
     estimated scf accuracy    <      14.07750829 Ry

     iteration # 36     ecut=    80.00 Ry     beta= 0.40
     Davidson diagonalization with overlap
     ethr =  1.00E-02,  avg # of iterations =  1.0

     negative rho (up, down):  7.718E-03 0.000E+00

     total cpu time spent up to now is      163.1 secs

     total energy              =    -903.12654874 Ry
     Harris-Foulkes estimate   =    -902.10677300 Ry
     estimated scf accuracy    <      12.89771926 Ry

     iteration # 37     ecut=    80.00 Ry     beta= 0.40
     Davidson diagonalization with overlap
     ethr =  1.00E-02,  avg # of iterations =  1.0

     negative rho (up, down):  6.704E-03 0.000E+00

     total cpu time spent up to now is      166.6 secs

     total energy              =    -903.74451486 Ry
     Harris-Foulkes estimate   =    -903.12847788 Ry
     estimated scf accuracy    <      14.03353851 Ry

     iteration # 38     ecut=    80.00 Ry     beta= 0.40
     Davidson diagonalization with overlap
     ethr =  1.00E-02,  avg # of iterations =  1.0

     negative rho (up, down):  1.254E-01 0.000E+00

     total cpu time spent up to now is      170.3 secs

     total energy              =    -912.66810704 Ry
     Harris-Foulkes estimate   =    -903.80338082 Ry
     estimated scf accuracy    <      25.24203460 Ry

     iteration # 39     ecut=    80.00 Ry     beta= 0.40
     Davidson diagonalization with overlap
     ethr =  1.00E-02,  avg # of iterations =  2.0

     negative rho (up, down):  8.932E-02 0.000E+00

     total cpu time spent up to now is      174.5 secs

     total energy              =    -900.87409290 Ry
     Harris-Foulkes estimate   =    -916.67462178 Ry
     estimated scf accuracy    <      53.25241233 Ry

     iteration # 40     ecut=    80.00 Ry     beta= 0.40
     Davidson diagonalization with overlap
     ethr =  1.00E-02,  avg # of iterations =  2.0

     negative rho (up, down):  2.495E-02 0.000E+00

     total cpu time spent up to now is      179.1 secs

     total energy              =    -893.46395655 Ry
     Harris-Foulkes estimate   =    -902.11608469 Ry
     estimated scf accuracy    <      15.54030818 Ry

     iteration # 41     ecut=    80.00 Ry     beta= 0.40
     Davidson diagonalization with overlap
     ethr =  1.00E-02,  avg # of iterations =  3.2

     negative rho (up, down):  2.540E-02 0.000E+00

     total cpu time spent up to now is      183.9 secs

     total energy              =    -896.80322089 Ry
     Harris-Foulkes estimate   =    -904.96292345 Ry
     estimated scf accuracy    <      32.16707318 Ry

     iteration # 42     ecut=    80.00 Ry     beta= 0.40
     Davidson diagonalization with overlap
     ethr =  1.00E-02,  avg # of iterations =  2.0

     negative rho (up, down):  2.713E-02 0.000E+00

     total cpu time spent up to now is      188.1 secs

     total energy              =    -898.00508814 Ry
     Harris-Foulkes estimate   =    -898.70502429 Ry
     estimated scf accuracy    <       9.23826089 Ry

     iteration # 43     ecut=    80.00 Ry     beta= 0.40
     Davidson diagonalization with overlap
     ethr =  1.00E-02,  avg # of iterations =  1.0

     negative rho (up, down):  2.063E-02 0.000E+00

     total cpu time spent up to now is      191.8 secs

     total energy              =    -897.15989799 Ry
     Harris-Foulkes estimate   =    -899.36074789 Ry
     estimated scf accuracy    <      13.62254236 Ry

     iteration # 44     ecut=    80.00 Ry     beta= 0.40
     Davidson diagonalization with overlap
     ethr =  1.00E-02,  avg # of iterations =  1.0

     negative rho (up, down):  1.127E-02 0.000E+00

     total cpu time spent up to now is      195.5 secs

     total energy              =    -901.94218200 Ry
     Harris-Foulkes estimate   =    -899.45536936 Ry
     estimated scf accuracy    <       9.90245405 Ry

     iteration # 45     ecut=    80.00 Ry     beta= 0.40
     Davidson diagonalization with overlap
     ethr =  1.00E-02,  avg # of iterations =  1.0

     negative rho (up, down):  2.108E-02 0.000E+00

     total cpu time spent up to now is      199.2 secs

     total energy              =    -902.32169748 Ry
     Harris-Foulkes estimate   =    -901.95619498 Ry
     estimated scf accuracy    <      12.80644087 Ry

     iteration # 46     ecut=    80.00 Ry     beta= 0.40
     Davidson diagonalization with overlap
     ethr =  1.00E-02,  avg # of iterations =  1.0

     negative rho (up, down):  7.049E-02 0.000E+00

     total cpu time spent up to now is      202.9 secs

     total energy              =    -900.44873605 Ry
     Harris-Foulkes estimate   =    -902.33050817 Ry
     estimated scf accuracy    <      13.05316510 Ry

     iteration # 47     ecut=    80.00 Ry     beta= 0.40
     Davidson diagonalization with overlap
     ethr =  1.00E-02,  avg # of iterations =  1.0

     negative rho (up, down):  6.200E-02 0.000E+00

     total cpu time spent up to now is      206.7 secs

     total energy              =    -893.54066790 Ry
     Harris-Foulkes estimate   =    -900.79919685 Ry
     estimated scf accuracy    <      13.38610732 Ry

     iteration # 48     ecut=    80.00 Ry     beta= 0.40
     Davidson diagonalization with overlap
     ethr =  1.00E-02,  avg # of iterations =  3.0

     negative rho (up, down):  3.310E-02 0.000E+00

     total cpu time spent up to now is      211.4 secs

     total energy              =    -883.70222879 Ry
     Harris-Foulkes estimate   =    -906.29233378 Ry
     estimated scf accuracy    <      34.16507415 Ry

     iteration # 49     ecut=    80.00 Ry     beta= 0.40
     Davidson diagonalization with overlap
     ethr =  1.00E-02,  avg # of iterations =  2.0

     negative rho (up, down):  6.511E-02 0.000E+00

     total cpu time spent up to now is      215.9 secs

     total energy              =    -886.04926395 Ry
     Harris-Foulkes estimate   =    -912.71340509 Ry
     estimated scf accuracy    <      48.01731414 Ry

     iteration # 50     ecut=    80.00 Ry     beta= 0.40
     Davidson diagonalization with overlap
     ethr =  1.00E-02,  avg # of iterations =  4.0

     negative rho (up, down):  6.100E-02 0.000E+00

     total cpu time spent up to now is      221.2 secs

     total energy              =    -905.20553409 Ry
     Harris-Foulkes estimate   =    -905.84405524 Ry
     estimated scf accuracy    <      33.56863773 Ry

     iteration # 51     ecut=    80.00 Ry     beta= 0.40
     Davidson diagonalization with overlap
     ethr =  1.00E-02,  avg # of iterations =  1.0

     negative rho (up, down):  5.159E-02 0.000E+00

     total cpu time spent up to now is      224.9 secs

     total energy              =    -902.55774329 Ry
     Harris-Foulkes estimate   =    -905.20695827 Ry
     estimated scf accuracy    <      32.81883450 Ry

     iteration # 52     ecut=    80.00 Ry     beta= 0.40
     Davidson diagonalization with overlap
     ethr =  1.00E-02,  avg # of iterations =  1.0

     negative rho (up, down):  5.813E-02 0.000E+00

     total cpu time spent up to now is      228.7 secs

     total energy              =    -903.06326969 Ry
     Harris-Foulkes estimate   =    -902.56965032 Ry
     estimated scf accuracy    <      29.54402837 Ry

     iteration # 53     ecut=    80.00 Ry     beta= 0.40
     Davidson diagonalization with overlap
     ethr =  1.00E-02,  avg # of iterations =  1.0

     negative rho (up, down):  5.278E-02 0.000E+00

     total cpu time spent up to now is      232.5 secs

     total energy              =    -898.93477785 Ry
     Harris-Foulkes estimate   =    -903.06476231 Ry
     estimated scf accuracy    <      30.13768767 Ry

     iteration # 54     ecut=    80.00 Ry     beta= 0.40
     Davidson diagonalization with overlap
     ethr =  1.00E-02,  avg # of iterations =  1.0

     negative rho (up, down):  5.375E-02 0.000E+00

     total cpu time spent up to now is      236.2 secs

     total energy              =    -898.22816823 Ry
     Harris-Foulkes estimate   =    -899.69261519 Ry
     estimated scf accuracy    <      14.19124262 Ry

     iteration # 55     ecut=    80.00 Ry     beta= 0.40
     Davidson diagonalization with overlap
     ethr =  1.00E-02,  avg # of iterations =  1.0

     negative rho (up, down):  6.911E-02 0.000E+00

     total cpu time spent up to now is      240.0 secs

     total energy              =    -899.25291698 Ry
     Harris-Foulkes estimate   =    -898.26025123 Ry
     estimated scf accuracy    <       1.26125150 Ry

     iteration # 56     ecut=    80.00 Ry     beta= 0.40
     Davidson diagonalization with overlap
     ethr =  1.00E-02,  avg # of iterations =  1.0

     negative rho (up, down):  1.520E-02 0.000E+00

     total cpu time spent up to now is      243.8 secs

     total energy              =    -893.08699013 Ry
     Harris-Foulkes estimate   =    -901.48559449 Ry
     estimated scf accuracy    <      16.23668201 Ry

     iteration # 57     ecut=    80.00 Ry     beta= 0.40
     Davidson diagonalization with overlap
     ethr =  1.00E-02,  avg # of iterations =  3.0

     negative rho (up, down):  3.130E-03 0.000E+00

     total cpu time spent up to now is      248.0 secs

     total energy              =    -908.49240472 Ry
     Harris-Foulkes estimate   =    -903.18188782 Ry
     estimated scf accuracy    <      14.09353580 Ry

     iteration # 58     ecut=    80.00 Ry     beta= 0.40
     Davidson diagonalization with overlap
     ethr =  1.00E-02,  avg # of iterations =  1.0

     negative rho (up, down):  4.441E-03 0.000E+00

     total cpu time spent up to now is      251.8 secs

     total energy              =    -918.81813492 Ry
     Harris-Foulkes estimate   =    -911.24964027 Ry
     estimated scf accuracy    <      44.15119426 Ry

     iteration # 59     ecut=    80.00 Ry     beta= 0.40
     Davidson diagonalization with overlap
     ethr =  1.00E-02,  avg # of iterations =  1.0

     negative rho (up, down):  3.863E-03 0.000E+00

     total cpu time spent up to now is      255.6 secs

     total energy              =    -918.27170739 Ry
     Harris-Foulkes estimate   =    -918.83363548 Ry
     estimated scf accuracy    <      52.21720435 Ry

     iteration # 60     ecut=    80.00 Ry     beta= 0.40
     Davidson diagonalization with overlap
     ethr =  1.00E-02,  avg # of iterations =  1.0

     negative rho (up, down):  3.616E-03 0.000E+00

     total cpu time spent up to now is      259.4 secs

     total energy              =    -903.08343941 Ry
     Harris-Foulkes estimate   =    -918.27414638 Ry
     estimated scf accuracy    <      51.62660108 Ry

     iteration # 61     ecut=    80.00 Ry     beta= 0.40
     Davidson diagonalization with overlap
     ethr =  1.00E-02,  avg # of iterations =  2.0

     negative rho (up, down):  1.067E-01 0.000E+00

     total cpu time spent up to now is      263.8 secs

     total energy              =    -897.87445234 Ry
     Harris-Foulkes estimate   =    -903.73398070 Ry
     estimated scf accuracy    <      23.77630079 Ry

     iteration # 62     ecut=    80.00 Ry     beta= 0.40
     Davidson diagonalization with overlap
     ethr =  1.00E-02,  avg # of iterations =  3.0

     negative rho (up, down):  5.148E-02 0.000E+00

     total cpu time spent up to now is      268.1 secs

     total energy              =    -897.80564404 Ry
     Harris-Foulkes estimate   =    -899.50400092 Ry
     estimated scf accuracy    <      11.73782434 Ry

     iteration # 63     ecut=    80.00 Ry     beta= 0.40
     Davidson diagonalization with overlap
     ethr =  1.00E-02,  avg # of iterations =  1.0

     negative rho (up, down):  6.136E-02 0.000E+00

     total cpu time spent up to now is      271.8 secs

     total energy              =    -898.36623813 Ry
     Harris-Foulkes estimate   =    -898.23588135 Ry
     estimated scf accuracy    <       1.02586870 Ry

     iteration # 64     ecut=    80.00 Ry     beta= 0.40
     Davidson diagonalization with overlap
     ethr =  1.00E-02,  avg # of iterations =  1.0

     negative rho (up, down):  1.377E-01 0.000E+00

     total cpu time spent up to now is      275.6 secs

     total energy              =    -907.34220690 Ry
     Harris-Foulkes estimate   =    -898.85470728 Ry
     estimated scf accuracy    <      12.99938691 Ry

     iteration # 65     ecut=    80.00 Ry     beta= 0.40
     Davidson diagonalization with overlap
     ethr =  1.00E-02,  avg # of iterations =  3.0

     negative rho (up, down):  1.510E-01 0.000E+00

     total cpu time spent up to now is      280.4 secs

     total energy              =    -904.58381566 Ry
     Harris-Foulkes estimate   =    -909.08821640 Ry
     estimated scf accuracy    <      37.66098988 Ry

     iteration # 66     ecut=    80.00 Ry     beta= 0.40
     Davidson diagonalization with overlap
     ethr =  1.00E-02,  avg # of iterations =  1.0

     negative rho (up, down):  2.063E-01 0.000E+00

     total cpu time spent up to now is      284.2 secs

     total energy              =    -908.21088471 Ry
     Harris-Foulkes estimate   =    -904.60759554 Ry
     estimated scf accuracy    <      32.26793294 Ry

     iteration # 67     ecut=    80.00 Ry     beta= 0.40
     Davidson diagonalization with overlap
     ethr =  1.00E-02,  avg # of iterations =  1.0

     negative rho (up, down):  4.559E-04 0.000E+00

     total cpu time spent up to now is      287.9 secs

     total energy              =    -887.95976807 Ry
     Harris-Foulkes estimate   =    -908.22682029 Ry
     estimated scf accuracy    <      36.59329004 Ry

     iteration # 68     ecut=    80.00 Ry     beta= 0.40
     Davidson diagonalization with overlap
     ethr =  1.00E-02,  avg # of iterations =  3.0

     negative rho (up, down):  2.984E-03 0.000E+00

     total cpu time spent up to now is      293.0 secs

     total energy              =    -916.98789020 Ry
     Harris-Foulkes estimate   =    -905.36313403 Ry
     estimated scf accuracy    <      27.22852888 Ry

     iteration # 69     ecut=    80.00 Ry     beta= 0.40
     Davidson diagonalization with overlap
     ethr =  1.00E-02,  avg # of iterations =  2.0

     negative rho (up, down):  1.076E-03 0.000E+00

     total cpu time spent up to now is      297.3 secs

     total energy              =    -913.44583775 Ry
     Harris-Foulkes estimate   =    -918.95834757 Ry
     estimated scf accuracy    <      52.50383725 Ry

     iteration # 70     ecut=    80.00 Ry     beta= 0.40
     Davidson diagonalization with overlap
     ethr =  1.00E-02,  avg # of iterations =  1.0

     negative rho (up, down):  6.324E-04 0.000E+00

     total cpu time spent up to now is      301.0 secs

     total energy              =    -909.68075251 Ry
     Harris-Foulkes estimate   =    -913.45056030 Ry
     estimated scf accuracy    <      46.61984700 Ry

     iteration # 71     ecut=    80.00 Ry     beta= 0.40
     Davidson diagonalization with overlap
     ethr =  1.00E-02,  avg # of iterations =  1.0

     negative rho (up, down):  1.084E-03 0.000E+00

     total cpu time spent up to now is      304.8 secs

     total energy              =    -912.54444642 Ry
     Harris-Foulkes estimate   =    -909.68574478 Ry
     estimated scf accuracy    <      42.56617245 Ry

     iteration # 72     ecut=    80.00 Ry     beta= 0.40
     Davidson diagonalization with overlap
     ethr =  1.00E-02,  avg # of iterations =  1.0

     negative rho (up, down):  1.041E-03 0.000E+00

     total cpu time spent up to now is      308.6 secs

     total energy              =    -910.06293800 Ry
     Harris-Foulkes estimate   =    -912.54543593 Ry
     estimated scf accuracy    <      45.58452599 Ry

     iteration # 73     ecut=    80.00 Ry     beta= 0.40
     Davidson diagonalization with overlap
     ethr =  1.00E-02,  avg # of iterations =  1.0

     negative rho (up, down):  3.321E-02 0.000E+00

     total cpu time spent up to now is      312.4 secs

     total energy              =    -912.13342731 Ry
     Harris-Foulkes estimate   =    -910.06327663 Ry
     estimated scf accuracy    <      42.93722728 Ry

     iteration # 74     ecut=    80.00 Ry     beta= 0.40
     Davidson diagonalization with overlap
     ethr =  1.00E-02,  avg # of iterations =  1.0

     negative rho (up, down):  1.104E-01 0.000E+00

     total cpu time spent up to now is      316.2 secs

     total energy              =    -899.63113837 Ry
     Harris-Foulkes estimate   =    -912.23194001 Ry
     estimated scf accuracy    <      46.35636900 Ry

     iteration # 75     ecut=    80.00 Ry     beta= 0.40
     Davidson diagonalization with overlap
     ethr =  1.00E-02,  avg # of iterations =  3.0

     negative rho (up, down):  8.520E-02 0.000E+00

     total cpu time spent up to now is      320.7 secs

     total energy              =    -895.99317838 Ry
     Harris-Foulkes estimate   =    -901.22136639 Ry
     estimated scf accuracy    <      13.43530415 Ry

     iteration # 76     ecut=    80.00 Ry     beta= 0.40
     Davidson diagonalization with overlap
     ethr =  1.00E-02,  avg # of iterations =  2.1

     negative rho (up, down):  1.298E-02 0.000E+00

     total cpu time spent up to now is      325.1 secs

     total energy              =    -898.71921431 Ry
     Harris-Foulkes estimate   =    -900.91624897 Ry
     estimated scf accuracy    <      15.65141763 Ry

     iteration # 77     ecut=    80.00 Ry     beta= 0.40
     Davidson diagonalization with overlap
     ethr =  1.00E-02,  avg # of iterations =  1.0

     negative rho (up, down):  2.304E-03 0.000E+00

     total cpu time spent up to now is      328.9 secs

     total energy              =    -894.79972114 Ry
     Harris-Foulkes estimate   =    -898.74677967 Ry
     estimated scf accuracy    <      12.89774337 Ry

     iteration # 78     ecut=    80.00 Ry     beta= 0.40
     Davidson diagonalization with overlap
     ethr =  1.00E-02,  avg # of iterations =  1.8

     negative rho (up, down):  2.874E-03 0.000E+00

     total cpu time spent up to now is      332.9 secs

     total energy              =    -901.86164502 Ry
     Harris-Foulkes estimate   =    -901.84775838 Ry
     estimated scf accuracy    <      12.68804015 Ry

     iteration # 79     ecut=    80.00 Ry     beta= 0.40
     Davidson diagonalization with overlap
     ethr =  1.00E-02,  avg # of iterations =  1.0

     negative rho (up, down):  1.383E-03 0.000E+00

     total cpu time spent up to now is      336.6 secs

     total energy              =    -902.37969135 Ry
     Harris-Foulkes estimate   =    -901.86625373 Ry
     estimated scf accuracy    <      12.69998750 Ry

     iteration # 80     ecut=    80.00 Ry     beta= 0.40
     Davidson diagonalization with overlap
     ethr =  1.00E-02,  avg # of iterations =  1.0

     negative rho (up, down):  3.309E-03 0.000E+00

     total cpu time spent up to now is      340.3 secs

     total energy              =    -903.07770950 Ry
     Harris-Foulkes estimate   =    -902.38241511 Ry
     estimated scf accuracy    <      13.30890811 Ry

     iteration # 81     ecut=    80.00 Ry     beta= 0.40
     Davidson diagonalization with overlap
     ethr =  1.00E-02,  avg # of iterations =  1.0

     negative rho (up, down):  8.718E-03 0.000E+00

     total cpu time spent up to now is      344.1 secs

     total energy              =    -902.03201676 Ry
     Harris-Foulkes estimate   =    -903.08062708 Ry
     estimated scf accuracy    <      14.06122879 Ry

     iteration # 82     ecut=    80.00 Ry     beta= 0.40
     Davidson diagonalization with overlap
     ethr =  1.00E-02,  avg # of iterations =  1.0

     negative rho (up, down):  1.989E-03 0.000E+00

     total cpu time spent up to now is      347.8 secs

     total energy              =    -903.79248765 Ry
     Harris-Foulkes estimate   =    -902.03332467 Ry
     estimated scf accuracy    <      12.90648247 Ry

     iteration # 83     ecut=    80.00 Ry     beta= 0.40
     Davidson diagonalization with overlap
     ethr =  1.00E-02,  avg # of iterations =  1.0

     negative rho (up, down):  5.077E-04 0.000E+00

     total cpu time spent up to now is      351.5 secs

     total energy              =    -905.99474952 Ry
     Harris-Foulkes estimate   =    -903.84685465 Ry
     estimated scf accuracy    <      25.53004419 Ry

     iteration # 84     ecut=    80.00 Ry     beta= 0.40
     Davidson diagonalization with overlap
     ethr =  1.00E-02,  avg # of iterations =  1.0

     negative rho (up, down):  5.866E-04 0.000E+00

     total cpu time spent up to now is      355.4 secs

     total energy              =    -907.65846121 Ry
     Harris-Foulkes estimate   =    -906.02131185 Ry
     estimated scf accuracy    <      39.65529397 Ry

     iteration # 85     ecut=    80.00 Ry     beta= 0.40
     Davidson diagonalization with overlap
     ethr =  1.00E-02,  avg # of iterations =  1.0

     negative rho (up, down):  1.006E-02 0.000E+00

     total cpu time spent up to now is      359.0 secs

     total energy              =    -893.88491819 Ry
     Harris-Foulkes estimate   =    -907.64420028 Ry
     estimated scf accuracy    <      40.48481595 Ry

     iteration # 86     ecut=    80.00 Ry     beta= 0.40
     Davidson diagonalization with overlap
     ethr =  1.00E-02,  avg # of iterations =  2.0

     negative rho (up, down):  7.369E-03 0.000E+00

     total cpu time spent up to now is      363.6 secs

     total energy              =    -898.44196842 Ry
     Harris-Foulkes estimate   =    -898.58939198 Ry
     estimated scf accuracy    <       1.23077582 Ry

     iteration # 87     ecut=    80.00 Ry     beta= 0.40
     Davidson diagonalization with overlap
     ethr =  1.00E-02,  avg # of iterations =  1.0

     negative rho (up, down):  6.020E-03 0.000E+00

     total cpu time spent up to now is      367.3 secs

     total energy              =    -899.91305498 Ry
     Harris-Foulkes estimate   =    -899.54405621 Ry
     estimated scf accuracy    <      10.18046177 Ry

     iteration # 88     ecut=    80.00 Ry     beta= 0.40
     Davidson diagonalization with overlap
     ethr =  1.00E-02,  avg # of iterations =  1.0

     negative rho (up, down):  9.700E-03 0.000E+00

     total cpu time spent up to now is      371.2 secs

     total energy              =    -899.02714316 Ry
     Harris-Foulkes estimate   =    -899.91469723 Ry
     estimated scf accuracy    <      10.59190816 Ry

     iteration # 89     ecut=    80.00 Ry     beta= 0.40
     Davidson diagonalization with overlap
     ethr =  1.00E-02,  avg # of iterations =  1.0

     negative rho (up, down):  1.845E-02 0.000E+00

     total cpu time spent up to now is      374.9 secs

     total energy              =    -897.61743159 Ry
     Harris-Foulkes estimate   =    -899.02933690 Ry
     estimated scf accuracy    <       9.58630954 Ry

     iteration # 90     ecut=    80.00 Ry     beta= 0.40
     Davidson diagonalization with overlap
     ethr =  1.00E-02,  avg # of iterations =  1.0

     negative rho (up, down):  9.067E-03 0.000E+00

     total cpu time spent up to now is      378.7 secs

     total energy              =    -898.31781947 Ry
     Harris-Foulkes estimate   =    -899.92242415 Ry
     estimated scf accuracy    <      14.31133189 Ry

     iteration # 91     ecut=    80.00 Ry     beta= 0.40
     Davidson diagonalization with overlap
     ethr =  1.00E-02,  avg # of iterations =  1.0

     negative rho (up, down):  1.658E-03 0.000E+00

     total cpu time spent up to now is      382.4 secs

     total energy              =    -900.31169393 Ry
     Harris-Foulkes estimate   =    -898.77530611 Ry
     estimated scf accuracy    <       9.24203703 Ry

     iteration # 92     ecut=    80.00 Ry     beta= 0.40
     Davidson diagonalization with overlap
     ethr =  1.00E-02,  avg # of iterations =  1.0

     negative rho (up, down):  1.915E-02 0.000E+00

     total cpu time spent up to now is      386.2 secs

     total energy              =    -922.95403884 Ry
     Harris-Foulkes estimate   =    -900.31684402 Ry
     estimated scf accuracy    <      11.03124788 Ry

     iteration # 93     ecut=    80.00 Ry     beta= 0.40
     Davidson diagonalization with overlap
     ethr =  1.00E-02,  avg # of iterations =  9.1

     negative rho (up, down):  8.914E-04 0.000E+00

     total cpu time spent up to now is      394.0 secs

     total energy              =    -919.00685169 Ry
     Harris-Foulkes estimate   =    -931.95457442 Ry
     estimated scf accuracy    <      66.86461191 Ry

     iteration # 94     ecut=    80.00 Ry     beta= 0.40
     Davidson diagonalization with overlap
     c_bands:  1 eigenvalues not converged
     c_bands:  1 eigenvalues not converged
     ethr =  1.00E-02,  avg # of iterations =  8.6

     negative rho (up, down):  1.464E-03 0.000E+00

     total cpu time spent up to now is      400.9 secs

     total energy              =    -919.54436581 Ry
     Harris-Foulkes estimate   =    -919.02202778 Ry
     estimated scf accuracy    <      52.88701168 Ry

     iteration # 95     ecut=    80.00 Ry     beta= 0.40
     Davidson diagonalization with overlap
     ethr =  1.00E-02,  avg # of iterations =  1.5

     negative rho (up, down):  2.338E-03 0.000E+00

     total cpu time spent up to now is      405.0 secs

     total energy              =    -922.76949500 Ry
     Harris-Foulkes estimate   =    -919.54573915 Ry
     estimated scf accuracy    <      53.35591759 Ry

     iteration # 96     ecut=    80.00 Ry     beta= 0.40
     Davidson diagonalization with overlap
     ethr =  1.00E-02,  avg # of iterations =  1.4

     negative rho (up, down):  6.947E-03 0.000E+00

     total cpu time spent up to now is      408.8 secs

     total energy              =    -926.40285022 Ry
     Harris-Foulkes estimate   =    -922.77029119 Ry
     estimated scf accuracy    <      56.78209019 Ry

     iteration # 97     ecut=    80.00 Ry     beta= 0.40
     Davidson diagonalization with overlap
     ethr =  1.00E-02,  avg # of iterations =  1.1

     negative rho (up, down):  2.405E-01 0.000E+00

     total cpu time spent up to now is      412.6 secs

     total energy              =    -947.46602122 Ry
     Harris-Foulkes estimate   =    -926.40423244 Ry
     estimated scf accuracy    <      60.88928969 Ry

     iteration # 98     ecut=    80.00 Ry     beta= 0.40
     Davidson diagonalization with overlap
     ethr =  1.00E-02,  avg # of iterations =  2.5

     negative rho (up, down):  6.730E+00 0.000E+00

     total cpu time spent up to now is      417.4 secs

     total energy              =   -1110.08779960 Ry
     Harris-Foulkes estimate   =    -947.57228246 Ry
     estimated scf accuracy    <      85.06403640 Ry

     iteration # 99     ecut=    80.00 Ry     beta= 0.40
     Davidson diagonalization with overlap
     ethr =  1.00E-02,  avg # of iterations =  8.5

     negative rho (up, down):  9.024E-01 0.000E+00

     total cpu time spent up to now is      425.0 secs

     total energy              =    -869.09377764 Ry
     Harris-Foulkes estimate   =   -1112.42667898 Ry
     estimated scf accuracy    <     262.07886710 Ry

     iteration #100     ecut=    80.00 Ry     beta= 0.40
     Davidson diagonalization with overlap
     ethr =  1.00E-02,  avg # of iterations =  9.7

     negative rho (up, down):  9.645E-01 0.000E+00

     total cpu time spent up to now is      436.6 secs

     total energy              =    -949.75787939 Ry
     Harris-Foulkes estimate   =    -932.59537014 Ry
     estimated scf accuracy    <      71.39971639 Ry

     iteration #101     ecut=    80.00 Ry     beta= 0.40
     Davidson diagonalization with overlap
     ethr =  1.00E-02,  avg # of iterations =  3.0

     negative rho (up, down):  1.279E-01 0.000E+00

     total cpu time spent up to now is      441.3 secs

     total energy              =    -890.19052729 Ry
     Harris-Foulkes estimate   =    -949.91601086 Ry
     estimated scf accuracy    <      94.97836266 Ry

     iteration #102     ecut=    80.00 Ry     beta= 0.40
     Davidson diagonalization with overlap
     ethr =  1.00E-02,  avg # of iterations =  3.0

     negative rho (up, down):  7.598E-04 0.000E+00

     total cpu time spent up to now is      446.9 secs

     total energy              =    -894.24161776 Ry
     Harris-Foulkes estimate   =    -900.12212812 Ry
     estimated scf accuracy    <      12.36004160 Ry

     iteration #103     ecut=    80.00 Ry     beta= 0.40
     Davidson diagonalization with overlap
     ethr =  1.00E-02,  avg # of iterations =  2.0

     negative rho (up, down):  1.272E-02 0.000E+00

     total cpu time spent up to now is      450.9 secs

     total energy              =    -903.21736051 Ry
     Harris-Foulkes estimate   =    -901.67356008 Ry
     estimated scf accuracy    <      15.99066593 Ry

     iteration #104     ecut=    80.00 Ry     beta= 0.40
     Davidson diagonalization with overlap
     ethr =  1.00E-02,  avg # of iterations =  1.0

     negative rho (up, down):  6.620E-03 0.000E+00

     total cpu time spent up to now is      454.6 secs

     total energy              =    -891.64944681 Ry
     Harris-Foulkes estimate   =    -903.57402700 Ry
     estimated scf accuracy    <      30.36947119 Ry

     iteration #105     ecut=    80.00 Ry     beta= 0.40
     Davidson diagonalization with overlap
     ethr =  1.00E-02,  avg # of iterations =  2.0

     negative rho (up, down):  7.366E-01 0.000E+00

     total cpu time spent up to now is      458.7 secs

     total energy              =    -890.89732228 Ry
     Harris-Foulkes estimate   =    -902.51715300 Ry
     estimated scf accuracy    <      13.54960439 Ry

     iteration #106     ecut=    80.00 Ry     beta= 0.40
     Davidson diagonalization with overlap
     ethr =  1.00E-02,  avg # of iterations =  4.0

     negative rho (up, down):  1.328E-02 0.000E+00

     total cpu time spent up to now is      464.6 secs

     total energy              =    -889.31142198 Ry
     Harris-Foulkes estimate   =    -927.40913496 Ry
     estimated scf accuracy    <      62.68210365 Ry

     iteration #107     ecut=    80.00 Ry     beta= 0.40
     Davidson diagonalization with overlap
     ethr =  1.00E-02,  avg # of iterations =  3.0

     negative rho (up, down):  1.529E-02 0.000E+00

     total cpu time spent up to now is      469.9 secs

     total energy              =    -900.71067060 Ry
     Harris-Foulkes estimate   =    -902.63413036 Ry
     estimated scf accuracy    <      13.39977689 Ry

     iteration #108     ecut=    80.00 Ry     beta= 0.40
     Davidson diagonalization with overlap
     ethr =  1.00E-02,  avg # of iterations =  1.0

     negative rho (up, down):  4.170E-02 0.000E+00

     total cpu time spent up to now is      473.8 secs

     total energy              =    -899.17902928 Ry
     Harris-Foulkes estimate   =    -900.72299146 Ry
     estimated scf accuracy    <      11.44297415 Ry

     iteration #109     ecut=    80.00 Ry     beta= 0.40
     Davidson diagonalization with overlap
     ethr =  1.00E-02,  avg # of iterations =  1.0

     negative rho (up, down):  3.313E-02 0.000E+00

     total cpu time spent up to now is      477.5 secs

     total energy              =    -903.06808596 Ry
     Harris-Foulkes estimate   =    -899.18908046 Ry
     estimated scf accuracy    <       9.59624012 Ry

     iteration #110     ecut=    80.00 Ry     beta= 0.40
     Davidson diagonalization with overlap
     ethr =  1.00E-02,  avg # of iterations =  1.0

     negative rho (up, down):  1.276E-01 0.000E+00

     total cpu time spent up to now is      481.3 secs

     total energy              =    -895.48650665 Ry
     Harris-Foulkes estimate   =    -903.08577205 Ry
     estimated scf accuracy    <      13.83534103 Ry

     iteration #111     ecut=    80.00 Ry     beta= 0.40
     Davidson diagonalization with overlap
     ethr =  1.00E-02,  avg # of iterations =  3.0

     negative rho (up, down):  8.742E-01 0.000E+00

     total cpu time spent up to now is      486.2 secs

     total energy              =    -910.60331460 Ry
     Harris-Foulkes estimate   =    -902.58775790 Ry
     estimated scf accuracy    <      30.00033036 Ry

     iteration #112     ecut=    80.00 Ry     beta= 0.40
     Davidson diagonalization with overlap
     ethr =  1.00E-02,  avg # of iterations =  2.0

     negative rho (up, down):  4.452E-01 0.000E+00

     total cpu time spent up to now is      490.7 secs

     total energy              =    -901.97921734 Ry
     Harris-Foulkes estimate   =    -911.11316930 Ry
     estimated scf accuracy    <      44.05929880 Ry

     iteration #113     ecut=    80.00 Ry     beta= 0.40
     Davidson diagonalization with overlap
     ethr =  1.00E-02,  avg # of iterations =  2.0

     negative rho (up, down):  6.108E-01 0.000E+00

     total cpu time spent up to now is      495.1 secs

     total energy              =    -901.31963414 Ry
     Harris-Foulkes estimate   =    -902.42596677 Ry
     estimated scf accuracy    <      30.49070348 Ry

     iteration #114     ecut=    80.00 Ry     beta= 0.40
     Davidson diagonalization with overlap
     ethr =  1.00E-02,  avg # of iterations =  1.0

     negative rho (up, down):  1.416E-01 0.000E+00

     total cpu time spent up to now is      498.9 secs

     total energy              =    -898.61033709 Ry
     Harris-Foulkes estimate   =    -901.87396849 Ry
     estimated scf accuracy    <      12.11825912 Ry

     iteration #115     ecut=    80.00 Ry     beta= 0.40
     Davidson diagonalization with overlap
     ethr =  1.00E-02,  avg # of iterations =  1.0

     negative rho (up, down):  6.143E-02 0.000E+00

     total cpu time spent up to now is      502.6 secs

     total energy              =    -898.28266576 Ry
     Harris-Foulkes estimate   =    -899.32470967 Ry
     estimated scf accuracy    <      14.10870494 Ry

     iteration #116     ecut=    80.00 Ry     beta= 0.40
     Davidson diagonalization with overlap
     ethr =  1.00E-02,  avg # of iterations =  1.0

     negative rho (up, down):  6.600E-02 0.000E+00

     total cpu time spent up to now is      506.3 secs

     total energy              =    -898.33344301 Ry
     Harris-Foulkes estimate   =    -898.30544097 Ry
     estimated scf accuracy    <       2.77009076 Ry

     iteration #117     ecut=    80.00 Ry     beta= 0.40
     Davidson diagonalization with overlap
     ethr =  1.00E-02,  avg # of iterations =  1.0

     negative rho (up, down):  1.014E-01 0.000E+00

     total cpu time spent up to now is      510.1 secs

     total energy              =    -898.19570045 Ry
     Harris-Foulkes estimate   =    -898.40559673 Ry
     estimated scf accuracy    <      12.84560122 Ry

     iteration #118     ecut=    80.00 Ry     beta= 0.40
     Davidson diagonalization with overlap
     ethr =  1.00E-02,  avg # of iterations =  1.0

     negative rho (up, down):  5.678E-02 0.000E+00

     total cpu time spent up to now is      513.9 secs

     total energy              =    -898.23572302 Ry
     Harris-Foulkes estimate   =    -898.19464990 Ry
     estimated scf accuracy    <      11.42420819 Ry

     iteration #119     ecut=    80.00 Ry     beta= 0.40
     Davidson diagonalization with overlap
     ethr =  1.00E-02,  avg # of iterations =  1.0

     negative rho (up, down):  9.388E-02 0.000E+00

     total cpu time spent up to now is      517.7 secs

     total energy              =    -897.89571400 Ry
     Harris-Foulkes estimate   =    -898.33772071 Ry
     estimated scf accuracy    <       6.67089718 Ry

     iteration #120     ecut=    80.00 Ry     beta= 0.40
     Davidson diagonalization with overlap
     ethr =  1.00E-02,  avg # of iterations =  1.0

     negative rho (up, down):  1.095E-01 0.000E+00

     total cpu time spent up to now is      521.4 secs

     total energy              =    -898.27432806 Ry
     Harris-Foulkes estimate   =    -898.53885705 Ry
     estimated scf accuracy    <      12.87066060 Ry

     iteration #121     ecut=    80.00 Ry     beta= 0.40
     Davidson diagonalization with overlap
     ethr =  1.00E-02,  avg # of iterations =  1.0

     negative rho (up, down):  1.077E-01 0.000E+00

     total cpu time spent up to now is      525.3 secs

     total energy              =    -898.29137922 Ry
     Harris-Foulkes estimate   =    -898.27832121 Ry
     estimated scf accuracy    <       7.85081441 Ry

     iteration #122     ecut=    80.00 Ry     beta= 0.40
     Davidson diagonalization with overlap
     ethr =  1.00E-02,  avg # of iterations =  1.0

     negative rho (up, down):  1.230E-01 0.000E+00

     total cpu time spent up to now is      529.0 secs

     total energy              =    -898.12186504 Ry
     Harris-Foulkes estimate   =    -898.30289435 Ry
     estimated scf accuracy    <      13.19862956 Ry

     iteration #123     ecut=    80.00 Ry     beta= 0.40
     Davidson diagonalization with overlap
     ethr =  1.00E-02,  avg # of iterations =  1.0

     negative rho (up, down):  9.598E-02 0.000E+00

     total cpu time spent up to now is      532.7 secs

     total energy              =    -898.12820233 Ry
     Harris-Foulkes estimate   =    -898.37803849 Ry
     estimated scf accuracy    <       7.30606568 Ry

     iteration #124     ecut=    80.00 Ry     beta= 0.40
     Davidson diagonalization with overlap
     ethr =  1.00E-02,  avg # of iterations =  1.0

     negative rho (up, down):  9.984E-02 0.000E+00

     total cpu time spent up to now is      536.4 secs

     total energy              =    -898.12288998 Ry
     Harris-Foulkes estimate   =    -898.16033880 Ry
     estimated scf accuracy    <       9.85933416 Ry

     iteration #125     ecut=    80.00 Ry     beta= 0.40
     Davidson diagonalization with overlap
     ethr =  1.00E-02,  avg # of iterations =  1.0

     negative rho (up, down):  1.026E-01 0.000E+00

     total cpu time spent up to now is      540.2 secs

     total energy              =    -898.22876101 Ry
     Harris-Foulkes estimate   =    -898.18607489 Ry
     estimated scf accuracy    <       6.36772404 Ry

     iteration #126     ecut=    80.00 Ry     beta= 0.40
     Davidson diagonalization with overlap
     ethr =  1.00E-02,  avg # of iterations =  1.0

     negative rho (up, down):  9.545E-02 0.000E+00

     total cpu time spent up to now is      543.9 secs

     total energy              =    -898.11988628 Ry
     Harris-Foulkes estimate   =    -898.24695301 Ry
     estimated scf accuracy    <       6.91101496 Ry

     iteration #127     ecut=    80.00 Ry     beta= 0.40
     Davidson diagonalization with overlap
     ethr =  1.00E-02,  avg # of iterations =  1.0

     negative rho (up, down):  9.841E-02 0.000E+00

     total cpu time spent up to now is      547.6 secs

     total energy              =    -898.13753480 Ry
     Harris-Foulkes estimate   =    -898.13859810 Ry
     estimated scf accuracy    <       1.98832742 Ry

     iteration #128     ecut=    80.00 Ry     beta= 0.40
     Davidson diagonalization with overlap
     ethr =  1.00E-02,  avg # of iterations =  1.0

     negative rho (up, down):  1.060E-01 0.000E+00

     total cpu time spent up to now is      551.3 secs

     total energy              =    -898.48597845 Ry
     Harris-Foulkes estimate   =    -898.18424590 Ry
     estimated scf accuracy    <       8.62201990 Ry

     iteration #129     ecut=    80.00 Ry     beta= 0.40
     Davidson diagonalization with overlap
     ethr =  1.00E-02,  avg # of iterations =  1.0

     negative rho (up, down):  1.032E-01 0.000E+00

     total cpu time spent up to now is      555.1 secs

     total energy              =    -898.50236527 Ry
     Harris-Foulkes estimate   =    -898.50627740 Ry
     estimated scf accuracy    <      10.64667879 Ry

     iteration #130     ecut=    80.00 Ry     beta= 0.40
     Davidson diagonalization with overlap
     ethr =  1.00E-02,  avg # of iterations =  1.0

     negative rho (up, down):  1.083E-01 0.000E+00

     total cpu time spent up to now is      558.9 secs

     total energy              =    -898.96676936 Ry
     Harris-Foulkes estimate   =    -898.50249696 Ry
     estimated scf accuracy    <      10.63190001 Ry

     iteration #131     ecut=    80.00 Ry     beta= 0.40
     Davidson diagonalization with overlap
     ethr =  1.00E-02,  avg # of iterations =  1.0

     negative rho (up, down):  9.958E-02 0.000E+00

     total cpu time spent up to now is      562.7 secs

     total energy              =    -898.51965154 Ry
     Harris-Foulkes estimate   =    -898.96735672 Ry
     estimated scf accuracy    <      11.15411990 Ry

     iteration #132     ecut=    80.00 Ry     beta= 0.40
     Davidson diagonalization with overlap
     ethr =  1.00E-02,  avg # of iterations =  1.0

     negative rho (up, down):  9.603E-02 0.000E+00

     total cpu time spent up to now is      566.3 secs

     total energy              =    -899.02020546 Ry
     Harris-Foulkes estimate   =    -898.51995483 Ry
     estimated scf accuracy    <      10.67630031 Ry

     iteration #133     ecut=    80.00 Ry     beta= 0.40
     Davidson diagonalization with overlap
     ethr =  1.00E-02,  avg # of iterations =  1.0

     negative rho (up, down):  9.218E-02 0.000E+00

     total cpu time spent up to now is      570.1 secs

     total energy              =    -899.13748721 Ry
     Harris-Foulkes estimate   =    -899.02062854 Ry
     estimated scf accuracy    <      11.21289205 Ry

     iteration #134     ecut=    80.00 Ry     beta= 0.40
     Davidson diagonalization with overlap
     ethr =  1.00E-02,  avg # of iterations =  1.0

     negative rho (up, down):  9.251E-02 0.000E+00

     total cpu time spent up to now is      573.8 secs

     total energy              =    -897.38583061 Ry
     Harris-Foulkes estimate   =    -899.13765890 Ry
     estimated scf accuracy    <      11.33790180 Ry

     iteration #135     ecut=    80.00 Ry     beta= 0.40
     Davidson diagonalization with overlap
     ethr =  1.00E-02,  avg # of iterations =  1.0

     negative rho (up, down):  1.256E-01 0.000E+00

     total cpu time spent up to now is      577.6 secs

     total energy              =    -893.38566851 Ry
     Harris-Foulkes estimate   =    -899.15669043 Ry
     estimated scf accuracy    <      13.53142431 Ry

     iteration #136     ecut=    80.00 Ry     beta= 0.40
     Davidson diagonalization with overlap
     ethr =  1.00E-02,  avg # of iterations =  2.0

     negative rho (up, down):  1.868E-02 0.000E+00

     total cpu time spent up to now is      581.6 secs

     total energy              =    -903.07682853 Ry
     Harris-Foulkes estimate   =    -903.40858434 Ry
     estimated scf accuracy    <      16.19931542 Ry

     iteration #137     ecut=    80.00 Ry     beta= 0.40
     Davidson diagonalization with overlap
     ethr =  1.00E-02,  avg # of iterations =  1.0

     negative rho (up, down):  5.158E-02 0.000E+00

     total cpu time spent up to now is      585.3 secs

     total energy              =    -899.34024582 Ry
     Harris-Foulkes estimate   =    -903.21331534 Ry
     estimated scf accuracy    <      13.99629128 Ry

     iteration #138     ecut=    80.00 Ry     beta= 0.40
     Davidson diagonalization with overlap
     ethr =  1.00E-02,  avg # of iterations =  1.0

     negative rho (up, down):  6.426E-02 0.000E+00

     total cpu time spent up to now is      589.1 secs

     total energy              =    -899.01621360 Ry
     Harris-Foulkes estimate   =    -899.35759037 Ry
     estimated scf accuracy    <       9.64668345 Ry

     iteration #139     ecut=    80.00 Ry     beta= 0.40
     Davidson diagonalization with overlap
     ethr =  1.00E-02,  avg # of iterations =  1.0

     negative rho (up, down):  5.953E-02 0.000E+00

     total cpu time spent up to now is      592.7 secs

     total energy              =    -898.58325152 Ry
     Harris-Foulkes estimate   =    -899.01933254 Ry
     estimated scf accuracy    <       9.29216247 Ry

     iteration #140     ecut=    80.00 Ry     beta= 0.40
     Davidson diagonalization with overlap
     ethr =  1.00E-02,  avg # of iterations =  1.0

     negative rho (up, down):  4.305E-02 0.000E+00

     total cpu time spent up to now is      596.5 secs

     total energy              =    -898.66915158 Ry
     Harris-Foulkes estimate   =    -898.58438118 Ry
     estimated scf accuracy    <       8.73153234 Ry

     iteration #141     ecut=    80.00 Ry     beta= 0.40
     Davidson diagonalization with overlap
     ethr =  1.00E-02,  avg # of iterations =  1.0

     negative rho (up, down):  5.734E-02 0.000E+00

     total cpu time spent up to now is      600.2 secs

     total energy              =    -898.41458998 Ry
     Harris-Foulkes estimate   =    -898.67111348 Ry
     estimated scf accuracy    <       8.87185047 Ry

     iteration #142     ecut=    80.00 Ry     beta= 0.40
     Davidson diagonalization with overlap
     ethr =  1.00E-02,  avg # of iterations =  1.0

     negative rho (up, down):  6.361E-02 0.000E+00

     total cpu time spent up to now is      604.0 secs

     total energy              =    -898.24447237 Ry
     Harris-Foulkes estimate   =    -898.41632617 Ry
     estimated scf accuracy    <       8.53677011 Ry

     iteration #143     ecut=    80.00 Ry     beta= 0.40
     Davidson diagonalization with overlap
     ethr =  1.00E-02,  avg # of iterations =  1.0

     negative rho (up, down):  6.482E-02 0.000E+00

     total cpu time spent up to now is      607.7 secs

     total energy              =    -898.35292977 Ry
     Harris-Foulkes estimate   =    -898.24361342 Ry
     estimated scf accuracy    <       9.73460075 Ry

     iteration #144     ecut=    80.00 Ry     beta= 0.40
     Davidson diagonalization with overlap
     ethr =  1.00E-02,  avg # of iterations =  1.0

     negative rho (up, down):  7.909E-02 0.000E+00

     total cpu time spent up to now is      611.5 secs

     total energy              =    -902.01561997 Ry
     Harris-Foulkes estimate   =    -898.34549294 Ry
     estimated scf accuracy    <       8.39709869 Ry

     iteration #145     ecut=    80.00 Ry     beta= 0.40
     Davidson diagonalization with overlap
     ethr =  1.00E-02,  avg # of iterations =  1.0

     negative rho (up, down):  7.228E-02 0.000E+00

     total cpu time spent up to now is      615.2 secs

     total energy              =    -902.35983326 Ry
     Harris-Foulkes estimate   =    -902.68539163 Ry
     estimated scf accuracy    <      15.29618444 Ry

     iteration #146     ecut=    80.00 Ry     beta= 0.40
     Davidson diagonalization with overlap
     ethr =  1.00E-02,  avg # of iterations =  1.0

     negative rho (up, down):  4.562E-02 0.000E+00

     total cpu time spent up to now is      618.9 secs

     total energy              =    -900.70623078 Ry
     Harris-Foulkes estimate   =    -902.36323555 Ry
     estimated scf accuracy    <      14.92995581 Ry

     iteration #147     ecut=    80.00 Ry     beta= 0.40
     Davidson diagonalization with overlap
     ethr =  1.00E-02,  avg # of iterations =  1.0

     negative rho (up, down):  3.904E-02 0.000E+00

     total cpu time spent up to now is      622.7 secs

     total energy              =    -900.40339914 Ry
     Harris-Foulkes estimate   =    -900.72069257 Ry
     estimated scf accuracy    <       9.84660056 Ry

     iteration #148     ecut=    80.00 Ry     beta= 0.40
     Davidson diagonalization with overlap
     ethr =  1.00E-02,  avg # of iterations =  1.0

     negative rho (up, down):  4.994E-02 0.000E+00

     total cpu time spent up to now is      626.4 secs

     total energy              =    -904.24096714 Ry
     Harris-Foulkes estimate   =    -900.47477903 Ry
     estimated scf accuracy    <      10.87286505 Ry

     iteration #149     ecut=    80.00 Ry     beta= 0.40
     Davidson diagonalization with overlap
     ethr =  1.00E-02,  avg # of iterations =  1.0

     negative rho (up, down):  5.119E-02 0.000E+00

     total cpu time spent up to now is      630.1 secs

     total energy              =    -906.59705290 Ry
     Harris-Foulkes estimate   =    -905.45520064 Ry
     estimated scf accuracy    <      39.91044319 Ry

     iteration #150     ecut=    80.00 Ry     beta= 0.40
     Davidson diagonalization with overlap
     ethr =  1.00E-02,  avg # of iterations =  1.0

     negative rho (up, down):  5.049E-02 0.000E+00

     total cpu time spent up to now is      633.8 secs

     total energy              =    -906.59872961 Ry
     Harris-Foulkes estimate   =    -906.59771512 Ry
     estimated scf accuracy    <      41.16656015 Ry

     iteration #151     ecut=    80.00 Ry     beta= 0.40
     Davidson diagonalization with overlap
     ethr =  1.00E-02,  avg # of iterations =  1.0

     negative rho (up, down):  4.935E-02 0.000E+00

     total cpu time spent up to now is      637.5 secs

     total energy              =    -906.77184335 Ry
     Harris-Foulkes estimate   =    -906.59899297 Ry
     estimated scf accuracy    <      41.17554309 Ry

     iteration #152     ecut=    80.00 Ry     beta= 0.40
     Davidson diagonalization with overlap
     ethr =  1.00E-02,  avg # of iterations =  1.0

     negative rho (up, down):  7.920E-02 0.000E+00

     total cpu time spent up to now is      641.2 secs

     total energy              =    -875.02330960 Ry
     Harris-Foulkes estimate   =    -906.77198130 Ry
     estimated scf accuracy    <      41.36475977 Ry

     iteration #153     ecut=    80.00 Ry     beta= 0.40
     Davidson diagonalization with overlap
     ethr =  1.00E-02,  avg # of iterations =  4.0

     negative rho (up, down):  2.872E-02 0.000E+00

     total cpu time spent up to now is      646.5 secs

     total energy              =    -915.45607487 Ry
     Harris-Foulkes estimate   =    -928.55346719 Ry
     estimated scf accuracy    <      62.84398498 Ry

     iteration #154     ecut=    80.00 Ry     beta= 0.40
     Davidson diagonalization with overlap
     ethr =  1.00E-02,  avg # of iterations =  2.0

     negative rho (up, down):  3.836E-02 0.000E+00

     total cpu time spent up to now is      651.0 secs

     total energy              =    -900.11374367 Ry
     Harris-Foulkes estimate   =    -915.58079580 Ry
     estimated scf accuracy    <      46.10957014 Ry

     iteration #155     ecut=    80.00 Ry     beta= 0.40
     Davidson diagonalization with overlap
     ethr =  1.00E-02,  avg # of iterations =  3.0

     negative rho (up, down):  4.925E-02 0.000E+00

     total cpu time spent up to now is      655.7 secs

     total energy              =    -898.59015605 Ry
     Harris-Foulkes estimate   =    -900.74617415 Ry
     estimated scf accuracy    <      15.64257930 Ry

     iteration #156     ecut=    80.00 Ry     beta= 0.40
     Davidson diagonalization with overlap
     ethr =  1.00E-02,  avg # of iterations =  1.0

     negative rho (up, down):  1.084E-01 0.000E+00

     total cpu time spent up to now is      659.4 secs

     total energy              =    -894.55558333 Ry
     Harris-Foulkes estimate   =    -898.60500447 Ry
     estimated scf accuracy    <      12.95597308 Ry

     iteration #157     ecut=    80.00 Ry     beta= 0.40
     Davidson diagonalization with overlap
     ethr =  1.00E-02,  avg # of iterations =  2.0

     negative rho (up, down):  3.274E-01 0.000E+00

     total cpu time spent up to now is      663.3 secs

     total energy              =    -910.95360396 Ry
     Harris-Foulkes estimate   =    -901.74060326 Ry
     estimated scf accuracy    <      14.39792439 Ry

     iteration #158     ecut=    80.00 Ry     beta= 0.40
     Davidson diagonalization with overlap
     ethr =  1.00E-02,  avg # of iterations =  3.0

     negative rho (up, down):  2.156E-01 0.000E+00

     total cpu time spent up to now is      668.2 secs

     total energy              =    -920.11986996 Ry
     Harris-Foulkes estimate   =    -914.17727015 Ry
     estimated scf accuracy    <      50.38293695 Ry

     iteration #159     ecut=    80.00 Ry     beta= 0.40
     Davidson diagonalization with overlap
     ethr =  1.00E-02,  avg # of iterations =  1.0

     negative rho (up, down):  3.585E-02 0.000E+00

     total cpu time spent up to now is      671.9 secs

     total energy              =    -922.96902482 Ry
     Harris-Foulkes estimate   =    -920.13650418 Ry
     estimated scf accuracy    <      56.52821295 Ry

     iteration #160     ecut=    80.00 Ry     beta= 0.40
     Davidson diagonalization with overlap
     ethr =  1.00E-02,  avg # of iterations =  2.0

     negative rho (up, down):  8.870E-02 0.000E+00

     total cpu time spent up to now is      676.3 secs

     total energy              =    -924.25036308 Ry
     Harris-Foulkes estimate   =    -923.11116389 Ry
     estimated scf accuracy    <      58.99832526 Ry

     iteration #161     ecut=    80.00 Ry     beta= 0.40
     Davidson diagonalization with overlap
     ethr =  1.00E-02,  avg # of iterations =  1.0

     negative rho (up, down):  1.547E-01 0.000E+00

     total cpu time spent up to now is      679.9 secs

     total energy              =    -915.46157351 Ry
     Harris-Foulkes estimate   =    -924.26913313 Ry
     estimated scf accuracy    <      60.25179882 Ry

     iteration #162     ecut=    80.00 Ry     beta= 0.40
     Davidson diagonalization with overlap
     ethr =  1.00E-02,  avg # of iterations =  1.0

     negative rho (up, down):  9.974E-03 0.000E+00

     total cpu time spent up to now is      683.7 secs

     total energy              =    -912.81543675 Ry
     Harris-Foulkes estimate   =    -915.47294122 Ry
     estimated scf accuracy    <      50.76593505 Ry

     iteration #163     ecut=    80.00 Ry     beta= 0.40
     Davidson diagonalization with overlap
     ethr =  1.00E-02,  avg # of iterations =  1.0

     negative rho (up, down):  8.069E-03 0.000E+00

     total cpu time spent up to now is      687.4 secs

     total energy              =    -895.51787437 Ry
     Harris-Foulkes estimate   =    -912.83459189 Ry
     estimated scf accuracy    <      47.78136913 Ry

     iteration #164     ecut=    80.00 Ry     beta= 0.40
     Davidson diagonalization with overlap
     ethr =  1.00E-02,  avg # of iterations =  4.0

     negative rho (up, down):  4.587E-02 0.000E+00

     total cpu time spent up to now is      692.5 secs

     total energy              =    -899.18459131 Ry
     Harris-Foulkes estimate   =    -899.89630721 Ry
     estimated scf accuracy    <      10.17629599 Ry

     iteration #165     ecut=    80.00 Ry     beta= 0.40
     Davidson diagonalization with overlap
     ethr =  1.00E-02,  avg # of iterations =  1.0

     negative rho (up, down):  3.710E-01 0.000E+00

     total cpu time spent up to now is      696.2 secs

     total energy              =    -895.00170953 Ry
     Harris-Foulkes estimate   =    -899.19799587 Ry
     estimated scf accuracy    <       9.38565891 Ry

     iteration #166     ecut=    80.00 Ry     beta= 0.40
     Davidson diagonalization with overlap
     ethr =  1.00E-02,  avg # of iterations =  3.0

     negative rho (up, down):  6.687E-02 0.000E+00

     total cpu time spent up to now is      701.1 secs

     total energy              =    -912.08520582 Ry
     Harris-Foulkes estimate   =    -902.49676493 Ry
     estimated scf accuracy    <      29.61290766 Ry

     iteration #167     ecut=    80.00 Ry     beta= 0.40
     Davidson diagonalization with overlap
     ethr =  1.00E-02,  avg # of iterations =  1.0

     negative rho (up, down):  7.309E-02 0.000E+00

     total cpu time spent up to now is      704.8 secs

     total energy              =    -905.25274722 Ry
     Harris-Foulkes estimate   =    -912.14956256 Ry
     estimated scf accuracy    <      42.13181456 Ry

     iteration #168     ecut=    80.00 Ry     beta= 0.40
     Davidson diagonalization with overlap
     ethr =  1.00E-02,  avg # of iterations =  1.0

     negative rho (up, down):  3.792E-02 0.000E+00

     total cpu time spent up to now is      708.6 secs

     total energy              =    -893.75955985 Ry
     Harris-Foulkes estimate   =    -905.29543935 Ry
     estimated scf accuracy    <      33.64315033 Ry

     iteration #169     ecut=    80.00 Ry     beta= 0.40
     Davidson diagonalization with overlap
     ethr =  1.00E-02,  avg # of iterations =  3.0

     negative rho (up, down):  7.722E-02 0.000E+00

     total cpu time spent up to now is      712.9 secs

     total energy              =    -901.76851417 Ry
     Harris-Foulkes estimate   =    -900.13179559 Ry
     estimated scf accuracy    <      10.39712062 Ry

     iteration #170     ecut=    80.00 Ry     beta= 0.40
     Davidson diagonalization with overlap
     ethr =  1.00E-02,  avg # of iterations =  1.0

     negative rho (up, down):  8.084E-02 0.000E+00

     total cpu time spent up to now is      716.7 secs

     total energy              =    -900.76474629 Ry
     Harris-Foulkes estimate   =    -901.96093524 Ry
     estimated scf accuracy    <      14.13075605 Ry

     iteration #171     ecut=    80.00 Ry     beta= 0.40
     Davidson diagonalization with overlap
     ethr =  1.00E-02,  avg # of iterations =  1.0

     negative rho (up, down):  5.874E-02 0.000E+00

     total cpu time spent up to now is      720.4 secs

     total energy              =    -894.77962507 Ry
     Harris-Foulkes estimate   =    -900.76626120 Ry
     estimated scf accuracy    <      13.01103955 Ry

     iteration #172     ecut=    80.00 Ry     beta= 0.40
     Davidson diagonalization with overlap
     ethr =  1.00E-02,  avg # of iterations =  3.0

     negative rho (up, down):  5.272E-02 0.000E+00

     total cpu time spent up to now is      725.2 secs

     total energy              =    -894.67798884 Ry
     Harris-Foulkes estimate   =    -902.74151322 Ry
     estimated scf accuracy    <      29.78463085 Ry

     iteration #173     ecut=    80.00 Ry     beta= 0.40
     Davidson diagonalization with overlap
     ethr =  1.00E-02,  avg # of iterations =  2.0

     negative rho (up, down):  6.955E-02 0.000E+00

     total cpu time spent up to now is      729.2 secs

     total energy              =    -900.55765940 Ry
     Harris-Foulkes estimate   =    -899.55137923 Ry
     estimated scf accuracy    <       9.83777408 Ry

     iteration #174     ecut=    80.00 Ry     beta= 0.40
     Davidson diagonalization with overlap
     ethr =  1.00E-02,  avg # of iterations =  1.0

     negative rho (up, down):  7.043E-02 0.000E+00

     total cpu time spent up to now is      732.9 secs

     total energy              =    -900.48540707 Ry
     Harris-Foulkes estimate   =    -900.56236890 Ry
     estimated scf accuracy    <      11.09141763 Ry

     iteration #175     ecut=    80.00 Ry     beta= 0.40
     Davidson diagonalization with overlap
     ethr =  1.00E-02,  avg # of iterations =  1.0

     negative rho (up, down):  5.859E-02 0.000E+00

     total cpu time spent up to now is      736.7 secs

     total energy              =    -899.46458458 Ry
     Harris-Foulkes estimate   =    -900.48712117 Ry
     estimated scf accuracy    <      11.02940082 Ry

     iteration #176     ecut=    80.00 Ry     beta= 0.40
     Davidson diagonalization with overlap
     ethr =  1.00E-02,  avg # of iterations =  1.0

     negative rho (up, down):  4.129E-02 0.000E+00

     total cpu time spent up to now is      740.5 secs

     total energy              =    -896.66360661 Ry
     Harris-Foulkes estimate   =    -899.45578956 Ry
     estimated scf accuracy    <       9.75720516 Ry

     iteration #177     ecut=    80.00 Ry     beta= 0.40
     Davidson diagonalization with overlap
     ethr =  1.00E-02,  avg # of iterations =  2.0

[...]
     Davidson diagonalization with overlap
     ethr =  1.00E-02,  avg # of iterations =  1.0

     negative rho (up, down):  7.930E-03 0.000E+00

     total cpu time spent up to now is     1543.5 secs

     total energy              =    -898.73144973 Ry
     Harris-Foulkes estimate   =    -899.93482174 Ry
     estimated scf accuracy    <       3.36896325 Ry

     iteration #363     ecut=    80.00 Ry     beta= 0.40
     Davidson diagonalization with overlap
     ethr =  1.00E-02,  avg # of iterations =  1.0

     negative rho (up, down):  2.752E-02 0.000E+00

     total cpu time spent up to now is     1547.3 secs

     total energy              =    -899.29308662 Ry
     Harris-Foulkes estimate   =    -899.88183397 Ry
     estimated scf accuracy    <      10.76189605 Ry

     iteration #364     ecut=    80.00 Ry     beta= 0.40
     Davidson diagonalization with overlap
     ethr =  1.00E-02,  avg # of iterations =  1.0

     negative rho (up, down):  5.632E-02 0.000E+00

     total cpu time spent up to now is     1551.0 secs

     total energy              =    -898.79864376 Ry
     Harris-Foulkes estimate   =    -899.30315243 Ry
     estimated scf accuracy    <       9.86284719 Ry

     iteration #365     ecut=    80.00 Ry     beta= 0.40
     Davidson diagonalization with overlap
     ethr =  1.00E-02,  avg # of iterations =  1.0

     negative rho (up, down):  3.560E-02 0.000E+00

     total cpu time spent up to now is     1554.7 secs

     total energy              =    -898.05355125 Ry
     Harris-Foulkes estimate   =    -898.80588078 Ry
     estimated scf accuracy    <       9.12059159 Ry

     iteration #366     ecut=    80.00 Ry     beta= 0.40
     Davidson diagonalization with overlap
     ethr =  1.00E-02,  avg # of iterations =  1.0

     negative rho (up, down):  5.567E-02 0.000E+00

     total cpu time spent up to now is     1558.5 secs

     total energy              =    -898.17640218 Ry
     Harris-Foulkes estimate   =    -899.52239804 Ry
     estimated scf accuracy    <      13.99315788 Ry

     iteration #367     ecut=    80.00 Ry     beta= 0.40
     Davidson diagonalization with overlap
     ethr =  1.00E-02,  avg # of iterations =  1.0

     negative rho (up, down):  4.243E-02 0.000E+00

     total cpu time spent up to now is     1562.3 secs

     total energy              =    -898.40051173 Ry
     Harris-Foulkes estimate   =    -898.37218907 Ry
     estimated scf accuracy    <       9.74221867 Ry

     iteration #368     ecut=    80.00 Ry     beta= 0.40
     Davidson diagonalization with overlap
     ethr =  1.00E-02,  avg # of iterations =  1.0

     negative rho (up, down):  9.951E-02 0.000E+00

     total cpu time spent up to now is     1566.1 secs

     total energy              =    -897.92968515 Ry
     Harris-Foulkes estimate   =    -898.43417386 Ry
     estimated scf accuracy    <       1.02516680 Ry

     iteration #369     ecut=    80.00 Ry     beta= 0.40
     Davidson diagonalization with overlap
     ethr =  1.00E-02,  avg # of iterations =  1.0

     negative rho (up, down):  8.694E-02 0.000E+00

     total cpu time spent up to now is     1569.9 secs

     total energy              =    -899.29047350 Ry
     Harris-Foulkes estimate   =    -899.31057123 Ry
     estimated scf accuracy    <      11.50147507 Ry

     iteration #370     ecut=    80.00 Ry     beta= 0.40
     Davidson diagonalization with overlap
     ethr =  1.00E-02,  avg # of iterations =  1.0

     negative rho (up, down):  3.873E-02 0.000E+00

     total cpu time spent up to now is     1573.7 secs

     total energy              =    -898.11585808 Ry
     Harris-Foulkes estimate   =    -899.29211577 Ry
     estimated scf accuracy    <      11.46556904 Ry

     iteration #371     ecut=    80.00 Ry     beta= 0.40
     Davidson diagonalization with overlap
     ethr =  1.00E-02,  avg # of iterations =  1.0

     negative rho (up, down):  4.061E-02 0.000E+00

     total cpu time spent up to now is     1577.4 secs

     total energy              =    -899.15691896 Ry
     Harris-Foulkes estimate   =    -898.86894670 Ry
     estimated scf accuracy    <       9.08853480 Ry

     iteration #372     ecut=    80.00 Ry     beta= 0.40
     Davidson diagonalization with overlap
     ethr =  1.00E-02,  avg # of iterations =  1.0

     negative rho (up, down):  4.885E-02 0.000E+00

     total cpu time spent up to now is     1581.2 secs

     total energy              =    -899.26567889 Ry
     Harris-Foulkes estimate   =    -899.15755343 Ry
     estimated scf accuracy    <       9.39922373 Ry

     iteration #373     ecut=    80.00 Ry     beta= 0.40
     Davidson diagonalization with overlap
     ethr =  1.00E-02,  avg # of iterations =  1.0

     negative rho (up, down):  1.876E-02 0.000E+00

     total cpu time spent up to now is     1585.0 secs

     total energy              =    -898.92016849 Ry
     Harris-Foulkes estimate   =    -899.26607993 Ry
     estimated scf accuracy    <       9.48907975 Ry

     iteration #374     ecut=    80.00 Ry     beta= 0.40
     Davidson diagonalization with overlap
     ethr =  1.00E-02,  avg # of iterations =  1.0

     negative rho (up, down):  1.665E-02 0.000E+00

     total cpu time spent up to now is     1588.8 secs

     total energy              =    -898.81967426 Ry
     Harris-Foulkes estimate   =    -898.92949389 Ry
     estimated scf accuracy    <       9.35854335 Ry

     iteration #375     ecut=    80.00 Ry     beta= 0.40
     Davidson diagonalization with overlap
     ethr =  1.00E-02,  avg # of iterations =  1.0

     negative rho (up, down):  1.383E-02 0.000E+00

     total cpu time spent up to now is     1592.6 secs

     total energy              =    -898.68810004 Ry
     Harris-Foulkes estimate   =    -898.82077096 Ry
     estimated scf accuracy    <       9.23440130 Ry

     iteration #376     ecut=    80.00 Ry     beta= 0.40
     Davidson diagonalization with overlap
     ethr =  1.00E-02,  avg # of iterations =  1.0

     negative rho (up, down):  1.464E-02 0.000E+00

     total cpu time spent up to now is     1596.3 secs

     total energy              =    -898.77675707 Ry
     Harris-Foulkes estimate   =    -898.79728228 Ry
     estimated scf accuracy    <      11.35460666 Ry

     iteration #377     ecut=    80.00 Ry     beta= 0.40
     Davidson diagonalization with overlap
     ethr =  1.00E-02,  avg # of iterations =  1.0

     negative rho (up, down):  2.686E-02 0.000E+00

     total cpu time spent up to now is     1600.0 secs

     total energy              =    -898.13946615 Ry
     Harris-Foulkes estimate   =    -898.77753066 Ry
     estimated scf accuracy    <       9.19829923 Ry

     iteration #378     ecut=    80.00 Ry     beta= 0.40
     Davidson diagonalization with overlap
     ethr =  1.00E-02,  avg # of iterations =  1.0

     negative rho (up, down):  9.764E-03 0.000E+00

     total cpu time spent up to now is     1603.7 secs

     total energy              =    -898.88024766 Ry
     Harris-Foulkes estimate   =    -898.76964240 Ry
     estimated scf accuracy    <       9.10155628 Ry

     iteration #379     ecut=    80.00 Ry     beta= 0.40
     Davidson diagonalization with overlap
     ethr =  1.00E-02,  avg # of iterations =  1.0

     negative rho (up, down):  4.315E-01 0.000E+00

     total cpu time spent up to now is     1607.4 secs

     total energy              =    -900.65047539 Ry
     Harris-Foulkes estimate   =    -898.88243692 Ry
     estimated scf accuracy    <      10.49995989 Ry

     iteration #380     ecut=    80.00 Ry     beta= 0.40
     Davidson diagonalization with overlap
     ethr =  1.00E-02,  avg # of iterations =  2.0

     negative rho (up, down):  8.921E-02 0.000E+00

     total cpu time spent up to now is     1611.8 secs

     total energy              =    -899.23162592 Ry
     Harris-Foulkes estimate   =    -903.26559380 Ry
     estimated scf accuracy    <      16.56428615 Ry

     iteration #381     ecut=    80.00 Ry     beta= 0.40
     Davidson diagonalization with overlap
     ethr =  1.00E-02,  avg # of iterations =  1.0

     negative rho (up, down):  6.544E-03 0.000E+00

     total cpu time spent up to now is     1615.6 secs

     total energy              =    -896.60056705 Ry
     Harris-Foulkes estimate   =    -899.27920373 Ry
     estimated scf accuracy    <      11.53796423 Ry

     iteration #382     ecut=    80.00 Ry     beta= 0.40
     Davidson diagonalization with overlap
     ethr =  1.00E-02,  avg # of iterations =  2.0

     negative rho (up, down):  3.078E-03 0.000E+00

     total cpu time spent up to now is     1619.8 secs

     total energy              =    -899.11472869 Ry
     Harris-Foulkes estimate   =    -899.03631137 Ry
     estimated scf accuracy    <       9.71063152 Ry

     iteration #383     ecut=    80.00 Ry     beta= 0.40
     Davidson diagonalization with overlap
     ethr =  1.00E-02,  avg # of iterations =  1.0

     negative rho (up, down):  2.863E-03 0.000E+00

     total cpu time spent up to now is     1623.5 secs

     total energy              =    -899.31290547 Ry
     Harris-Foulkes estimate   =    -899.12119323 Ry
     estimated scf accuracy    <      10.74492978 Ry

     iteration #384     ecut=    80.00 Ry     beta= 0.40
     Davidson diagonalization with overlap
     ethr =  1.00E-02,  avg # of iterations =  1.0

     negative rho (up, down):  5.233E-03 0.000E+00

     total cpu time spent up to now is     1627.3 secs

     total energy              =    -899.53597793 Ry
     Harris-Foulkes estimate   =    -899.30455493 Ry
     estimated scf accuracy    <       9.98640300 Ry

     iteration #385     ecut=    80.00 Ry     beta= 0.40
     Davidson diagonalization with overlap
     ethr =  1.00E-02,  avg # of iterations =  1.0

     negative rho (up, down):  2.704E-03 0.000E+00

     total cpu time spent up to now is     1631.0 secs

     total energy              =    -899.33839889 Ry
     Harris-Foulkes estimate   =    -899.53686968 Ry
     estimated scf accuracy    <      10.22565292 Ry

     iteration #386     ecut=    80.00 Ry     beta= 0.40
     Davidson diagonalization with overlap
     ethr =  1.00E-02,  avg # of iterations =  1.0

     negative rho (up, down):  2.881E+00 0.000E+00

     total cpu time spent up to now is     1634.8 secs

     total energy              =    -928.04151781 Ry
     Harris-Foulkes estimate   =    -899.33927364 Ry
     estimated scf accuracy    <      10.05412072 Ry

     iteration #387     ecut=    80.00 Ry     beta= 0.40
     Davidson diagonalization with overlap
     ethr =  1.00E-02,  avg # of iterations =  5.0

     negative rho (up, down):  4.467E-04 0.000E+00

     total cpu time spent up to now is     1643.1 secs

     total energy              =    -837.87094180 Ry
     Harris-Foulkes estimate   =    -987.67026696 Ry
     estimated scf accuracy    <     298.73029124 Ry

     iteration #388     ecut=    80.00 Ry     beta= 0.40
     Davidson diagonalization with overlap
     ethr =  1.00E-02,  avg # of iterations = 10.8

     negative rho (up, down):  1.093E-03 0.000E+00

     total cpu time spent up to now is     1653.9 secs

     total energy              =    -898.42564150 Ry
     Harris-Foulkes estimate   =    -902.64107208 Ry
     estimated scf accuracy    <      14.26010961 Ry

     iteration #389     ecut=    80.00 Ry     beta= 0.40
     Davidson diagonalization with overlap
     ethr =  1.00E-02,  avg # of iterations =  2.1

     negative rho (up, down):  2.510E-03 0.000E+00

     total cpu time spent up to now is     1658.4 secs

     total energy              =    -897.90550115 Ry
     Harris-Foulkes estimate   =    -901.53810467 Ry
     estimated scf accuracy    <      16.50239094 Ry

     iteration #390     ecut=    80.00 Ry     beta= 0.40
     Davidson diagonalization with overlap
     ethr =  1.00E-02,  avg # of iterations =  1.0

     negative rho (up, down):  2.657E-01 0.000E+00

     total cpu time spent up to now is     1662.2 secs

     total energy              =    -896.35550268 Ry
     Harris-Foulkes estimate   =    -900.30650820 Ry
     estimated scf accuracy    <      11.32268209 Ry

     iteration #391     ecut=    80.00 Ry     beta= 0.40
     Davidson diagonalization with overlap
     ethr =  1.00E-02,  avg # of iterations =  2.0

     negative rho (up, down):  2.588E-02 0.000E+00

     total cpu time spent up to now is     1666.2 secs

     total energy              =    -896.78545086 Ry
     Harris-Foulkes estimate   =    -899.79247000 Ry
     estimated scf accuracy    <       9.03799007 Ry

     iteration #392     ecut=    80.00 Ry     beta= 0.40
     Davidson diagonalization with overlap
     ethr =  1.00E-02,  avg # of iterations =  2.0

     negative rho (up, down):  5.331E-02 0.000E+00

     total cpu time spent up to now is     1670.4 secs

     total energy              =    -899.12468146 Ry
     Harris-Foulkes estimate   =    -898.97746019 Ry
     estimated scf accuracy    <       9.38898892 Ry

     iteration #393     ecut=    80.00 Ry     beta= 0.40
     Davidson diagonalization with overlap
     ethr =  1.00E-02,  avg # of iterations =  1.0

     negative rho (up, down):  3.488E-02 0.000E+00

     total cpu time spent up to now is     1674.1 secs

     total energy              =    -898.36820995 Ry
     Harris-Foulkes estimate   =    -899.13014761 Ry
     estimated scf accuracy    <       9.42344246 Ry

     iteration #394     ecut=    80.00 Ry     beta= 0.40
     Davidson diagonalization with overlap
     ethr =  1.00E-02,  avg # of iterations =  1.0

     negative rho (up, down):  3.304E-02 0.000E+00

     total cpu time spent up to now is     1677.9 secs

     total energy              =    -899.23945346 Ry
     Harris-Foulkes estimate   =    -898.74674968 Ry
     estimated scf accuracy    <      12.97513624 Ry

     iteration #395     ecut=    80.00 Ry     beta= 0.40
     Davidson diagonalization with overlap
     ethr =  1.00E-02,  avg # of iterations =  1.0

     negative rho (up, down):  1.952E-02 0.000E+00

     total cpu time spent up to now is     1681.7 secs

     total energy              =    -899.71527068 Ry
     Harris-Foulkes estimate   =    -899.24136380 Ry
     estimated scf accuracy    <      13.62915736 Ry

     iteration #396     ecut=    80.00 Ry     beta= 0.40
     Davidson diagonalization with overlap
     ethr =  1.00E-02,  avg # of iterations =  1.0

     negative rho (up, down):  5.025E-02 0.000E+00

     total cpu time spent up to now is     1685.5 secs

     total energy              =    -900.64218245 Ry
     Harris-Foulkes estimate   =    -899.71662690 Ry
     estimated scf accuracy    <      14.18932684 Ry

     iteration #397     ecut=    80.00 Ry     beta= 0.40
     Davidson diagonalization with overlap
     ethr =  1.00E-02,  avg # of iterations =  1.0

     negative rho (up, down):  5.730E-02 0.000E+00

     total cpu time spent up to now is     1689.3 secs

     total energy              =    -900.56433796 Ry
     Harris-Foulkes estimate   =    -900.64606642 Ry
     estimated scf accuracy    <      15.42221441 Ry

     iteration #398     ecut=    80.00 Ry     beta= 0.40
     Davidson diagonalization with overlap
     ethr =  1.00E-02,  avg # of iterations =  1.0

     negative rho (up, down):  4.614E-02 0.000E+00

     total cpu time spent up to now is     1693.0 secs

     total energy              =    -900.53500392 Ry
     Harris-Foulkes estimate   =    -900.56506624 Ry
     estimated scf accuracy    <      15.33349036 Ry

     iteration #399     ecut=    80.00 Ry     beta= 0.40
     Davidson diagonalization with overlap
     ethr =  1.00E-02,  avg # of iterations =  1.0

     negative rho (up, down):  5.431E-02 0.000E+00

     total cpu time spent up to now is     1696.7 secs

     total energy              =    -900.60595477 Ry
     Harris-Foulkes estimate   =    -900.53536585 Ry
     estimated scf accuracy    <      15.29993201 Ry

     iteration #400     ecut=    80.00 Ry     beta= 0.40
     Davidson diagonalization with overlap
     ethr =  1.00E-02,  avg # of iterations =  1.0

     negative rho (up, down):  7.136E-01 0.000E+00

     total cpu time spent up to now is     1700.5 secs

     total energy              =    -900.98385022 Ry
     Harris-Foulkes estimate   =    -900.60621192 Ry
     estimated scf accuracy    <      15.39842809 Ry

     End of self-consistent calculation

     convergence NOT achieved after 400 iterations: stopping

     init_run     :      1.74s CPU      3.53s WALL (       1 calls)
     electrons    :    888.50s CPU   1693.66s WALL (       1 calls)

     Called by init_run:
     wfcinit      :      1.20s CPU      2.33s WALL (       1 calls)
     potinit      :      0.09s CPU      0.34s WALL (       1 calls)
     hinit0       :      0.38s CPU      0.71s WALL (       1 calls)

     Called by electrons:
     c_bands      :    706.62s CPU   1321.77s WALL (     400 calls)
     sum_band     :    140.83s CPU    265.22s WALL (     400 calls)
     v_of_rho     :      4.46s CPU      9.35s WALL (     401 calls)
     newd         :     13.89s CPU     22.84s WALL (     401 calls)
     PAW_pot      :     20.65s CPU     69.64s WALL (     401 calls)
     mix_rho      :      1.71s CPU      3.44s WALL (     400 calls)

     Called by c_bands:
     init_us_2    :     31.28s CPU     37.93s WALL (   88110 calls)
     cegterg      :    644.04s CPU   1210.33s WALL (   44000 calls)

     Called by sum_band:
     sum_band:bec :      0.66s CPU      0.83s WALL (   44000 calls)
     addusdens    :     12.02s CPU     16.36s WALL (     400 calls)

     Called by *egterg:
     h_psi        :    473.97s CPU    918.13s WALL (  124487 calls)
     s_psi        :     34.66s CPU     42.31s WALL (  124487 calls)
     g_psi        :      1.58s CPU      1.88s WALL (   80377 calls)
     cdiaghg      :     18.16s CPU     24.59s WALL (  124377 calls)

     Called by h_psi:
     h_psi:pot    :    470.62s CPU    914.07s WALL (  124487 calls)
     h_psi:calbec :     66.54s CPU    156.11s WALL (  124487 calls)
     vloc_psi     :    365.85s CPU    710.05s WALL (  124487 calls)
     add_vuspsi   :     37.73s CPU     47.35s WALL (  124487 calls)

     General routines
     calbec       :     93.77s CPU    212.07s WALL (  168487 calls)
     fft          :      2.16s CPU      8.67s WALL (    4413 calls)
     ffts         :      0.13s CPU      0.24s WALL (     400 calls)
     fftw         :    399.66s CPU    814.31s WALL ( 2192890 calls)
     davcio       :      0.00s CPU      0.01s WALL (     128 calls)

     Parallel routines
     fft_scatt_xy :     40.73s CPU     50.56s WALL ( 2197703 calls)
     fft_scatt_yz :    213.64s CPU    590.11s WALL ( 2197703 calls)

     PWSCF        : 14m52.10s CPU    28m20.49s WALL


   This run was terminated on:  10:31:43  24Oct2018            

=------------------------------------------------------------------------------=
   JOB DONE.
=------------------------------------------------------------------------------=
-------------------------------------------------------
Primary job  terminated normally, but 1 process returned
a non-zero exit code.. Per user-direction, the job has been aborted.
-------------------------------------------------------
------------------------------------------------------------
A process or daemon was unable to complete a TCP connection
to another process:
  Local host:    kanjouri-MSI
  Remote host:   kanjouri-MSI
This is usually caused by a firewall on the remote host. Please
check that any firewall (e.g., iptables) has been disabled and
try again.
------------------------------------------------------------
--------------------------------------------------------------------------
mpirun.openmpi detected that one or more processes exited with non-zero status, thus causing
the job to be terminated. The first process to do so was:

  Process name: [[11154,1],0]
  Exit code:    2
--------------------------------------------------------------------------
